/*--------------------------------*- C++ -*----------------------------------*\
| =========                 |                                                 |
| \\      /  F ield         | OpenFOAM: The Open Source CFD Toolbox           |
|  \\    /   O peration     | Version:  2206                                  |
|   \\  /    A nd           | Website:  www.openfoam.com                      |
|    \\/     M anipulation  |                                                 |
\*---------------------------------------------------------------------------*/
FoamFile
{
    version     2.0;
    format      ascii;
    arch        "LSB;label=32;scalar=64";
    class       volScalarField;
    location    "82";
    object      p;
}
// * * * * * * * * * * * * * * * * * * * * * * * * * * * * * * * * * * * * * //

dimensions      [0 2 -2 0 0 0 0];

internalField   nonuniform List<scalar> 
918
(
0.557445
1.1723
0.00111966
0.556913
-0.0126647
1.13926
-0.514121
0.65034
0.537655
-0.107401
-0.058469
0.539676
1.00015
0.765396
-1.12477
-0.0137136
0.651661
-0.383156
0.536784
-0.0695216
0.674744
0.544186
0.547209
0.537786
0.597054
0.737165
0.881427
0.0293718
0.0116733
0.00686672
-0.012202
-0.0390961
-0.0337247
1.02291
1.07399
1.0967
0.505358
0.333941
-0.379887
-0.453752
-0.439681
-0.539242
0.652037
0.65389
-0.217949
0.651457
0.649423
0.524653
0.537025
0.53794
0.538947
0.537938
0.539315
0.401835
-0.108483
-0.139738
-0.0884488
-0.081357
0.0481415
-0.0574807
-0.058011
-0.0575043
-0.0594022
0.454408
0.534177
0.530826
0.543904
0.553176
1.11185
1.08378
1.10992
1.02362
1.04007
0.978127
0.950738
0.786227
0.80847
0.750903
0.736234
-1.55374
-2.49977
-0.537712
-0.288611
-0.0106917
-0.0120621
-0.00678025
0.64903
0.650113
0.651623
0.653404
1.07782
-0.380414
-0.482691
0.536929
0.535739
0.544048
0.54475
0.540771
0.53986
-0.0614334
-0.0591038
-0.0568952
-0.0643051
-0.0614549
0.64901
0.654831
0.538312
0.535312
0.56086
0.581524
0.571223
0.276954
0.607906
0.624
0.573142
0.730859
0.72475
0.733658
0.855122
0.819007
0.918247
0.941474
0.0184821
-0.000295103
-0.0179454
-0.0210994
-0.020319
0.501184
0.493716
0.521592
0.5088
0.511311
0.251185
0.118475
0.418585
0.443209
-0.299614
-0.36787
-0.431997
-0.461972
-0.569565
0.61376
0.654383
0.651585
-0.227122
-0.155335
-0.289974
-0.0820196
-0.145355
0.514897
0.521926
0.516916
0.532495
0.526955
0.528921
0.541303
0.538371
0.539932
0.463903
0.587329
0.328088
0.292393
-0.244047
-0.155256
-0.243217
-0.0711462
-0.0686032
0.0625007
0.0883961
0.0347086
0.0228196
-0.064314
-0.0599732
-0.0620819
-0.0587579
-0.0589142
0.447114
0.435821
0.467126
0.474702
0.520851
0.522275
0.526706
0.524733
0.901559
0.924022
0.931473
0.905115
-3.48377
-6.25539
0.0339058
0.169317
-0.00683112
-0.00967535
0.00193239
-0.00627782
-0.000247232
-0.00222675
-0.012627
-0.0138157
-0.00826624
-0.00722961
0.643791
0.644482
1.00067
1.00851
0.975549
0.928651
0.525208
0.527244
0.532716
0.528614
-0.0591163
-0.0585377
-0.058411
0.649856
0.650037
0.650253
0.238204
0.147874
0.328284
0.357631
0.637242
0.626509
0.63555
0.634067
0.669994
0.948919
0.967077
0.965294
0.973524
1.01749
1.03384
0.999302
0.480562
0.490581
0.485509
0.524419
0.522336
0.523171
0.519649
0.520624
0.518819
-0.0313923
-0.409818
0.490411
0.506584
0.492841
0.49447
0.693902
0.772581
0.652848
0.653419
0.653418
-0.0119843
-0.0705524
0.247384
0.212975
0.386302
0.422926
0.401754
0.872917
0.83283
0.883104
0.856408
0.817575
0.844074
-0.361516
-1.855
-0.977465
0.516481
0.332384
0.419244
0.00449319
-0.0122667
-0.00769717
1.00124
1.07272
0.643093
0.818479
0.820635
0.703731
0.732818
0.79323
0.718915
0.753889
0.78756
0.765391
0.569444
0.503575
0.52019
0.841401
0.896869
0.117156
0.0545283
0.0108228
0.107608
0.165476
0.139233
1.03248
0.95015
1.01992
0.535075
0.535801
-0.0069028
-0.0204816
0.540066
0.540123
-0.0138519
-0.00352087
0.401654
-0.832374
0.0945603
0.528682
0.518505
0.535673
-0.0933269
0.353224
-0.0579773
0.0438501
-0.0138107
0.529876
0.465562
0.424549
-0.00198389
-0.0232236
-0.0601143
-0.213823
0.532744
0.531049
0.53514
0.536075
0.53676
-0.021077
-0.0169942
-0.01145
-0.05519
-0.0459589
-0.0605719
0.499525
0.518735
-0.172345
0.53529
0.537429
0.537246
0.530533
0.536149
0.534409
-0.0136136
-0.0178739
-0.0205373
0.217772
0.351097
0.638277
0.722343
0.612151
0.389348
0.155871
0.54322
0.605251
0.512506
0.664174
0.649195
0.647217
0.15996
0.00916404
0.16946
0.111354
0.526546
0.525294
0.516754
0.513707
0.53054
0.528652
0.533216
0.530248
0.5332
0.534576
-0.04988
-0.0759419
-0.085618
-0.152384
0.307976
0.568816
0.252924
0.282153
0.13869
-0.0529126
-0.0545047
-0.0553354
-0.0617256
-0.00303936
-0.0296072
0.0382249
0.0381333
0.00918136
-0.016369
-0.0136116
-0.0248562
-0.0184177
0.523123
0.523078
0.527997
0.536659
0.475256
0.47904
0.443737
0.464601
0.449755
0.388153
0.423829
0.398902
-0.00779443
4.59179e-06
-0.00436103
-0.0217373
-0.0185066
-0.0376946
-0.034554
-0.0304964
-0.0261737
-0.0328305
-0.0538203
-0.0589163
-0.171608
-0.287702
0.987294
0.90685
0.138459
0.521882
0.528348
0.525103
0.530048
0.533179
0.53397
0.531671
0.528214
0.51903
0.520692
0.517232
0.518177
-0.102988
-0.245454
-0.0737372
-0.149535
0.146421
0.628455
0.362995
0.297829
0.293368
0.523151
0.908551
0.690035
0.654463
0.642487
-0.346617
0.039584
-0.283966
0.328721
0.158724
0.640295
0.687505
0.706882
0.656666
0.610761
-0.0982238
0.555906
-0.0778838
-0.0248835
0.177648
0.0516958
0.642998
0.638092
0.64493
0.639477
0.64893
0.640669
0.620666
0.622523
0.638673
0.645801
0.479175
0.248398
0.198564
0.160104
0.643602
0.512805
0.561241
0.488079
0.521809
0.524394
0.523057
0.504362
0.511959
0.507474
0.51404
0.517621
0.526252
0.526741
0.521977
0.52411
-0.0562924
-0.0618954
-0.0265203
-0.136111
-0.128945
-0.191151
-0.0604782
0.074622
0.0360087
0.236557
0.339948
0.0515539
-0.0575429
-0.0303972
0.0128199
0.179543
0.208227
0.0723883
0.159137
0.151704
0.132213
0.235256
0.238089
-0.0336939
-0.0347212
-0.039037
-0.0426756
0.0150534
0.0868577
0.0960738
-0.0135706
-0.0179959
-0.0530531
-0.0562536
-0.0247994
-0.0298099
-0.0254518
0.0026644
-0.0557447
-0.0238398
-0.0103216
-0.0127851
-0.0115231
-0.01696
0.517996
0.519661
0.519957
0.528911
0.54105
0.555698
0.521403
0.497532
0.48829
0.491294
0.464211
0.474519
0.470371
0.483976
0.505294
0.513752
0.512092
0.514891
0.497294
0.499011
0.485493
0.48916
0.464264
0.444799
0.432729
-0.0456334
-0.00726603
-0.0157216
-0.0407907
-0.0111408
-0.0229842
-0.0161142
0.00363299
-0.0137171
-0.0141941
-0.0245826
-0.0313119
-0.030653
-0.0733885
0.0138129
-0.18584
-0.220579
-0.294225
0.889757
1.01403
0.808289
0.581145
0.602319
0.845776
0.929626
0.541045
0.733933
0.756805
0.588368
0.855473
0.526738
0.526329
0.523928
0.523405
0.524628
-0.00693122
0.100333
0.0963639
0.161452
0.27818
0.389232
0.322014
0.196374
0.325809
0.328024
0.620956
0.632922
0.589022
0.613215
0.614081
0.424785
0.500495
0.552122
0.513299
0.565775
0.587637
0.541223
0.574763
0.523519
0.478687
0.474803
0.424474
0.444009
0.419476
0.40266
0.517288
0.49387
0.504856
0.494968
0.517074
0.543474
0.540499
0.562983
0.57803
0.497833
0.452918
0.462199
0.492415
0.454058
0.469554
0.485327
0.235167
0.137878
0.220665
-0.0633487
0.00494563
-0.00671769
-0.0558294
-0.00322075
0.28065
-0.408711
-0.386099
-1.01118
0.50652
0.94846
0.565803
0.545941
0.649652
0.639041
0.644634
0.660987
0.653847
0.632268
0.640059
0.645281
0.589064
0.609946
0.625699
0.622173
0.523496
0.378678
0.379054
0.325826
0.196
0.236435
0.431684
0.3562
0.28146
0.28153
0.455959
0.341942
0.412738
0.445192
0.376088
0.330752
0.534412
0.600675
0.593913
0.56753
0.476392
0.487844
0.512807
0.546358
0.569533
0.603944
0.513463
0.519425
0.520656
0.518126
0.515384
0.518486
0.518745
0.521341
0.521949
0.524977
0.524051
-0.0536416
-0.0403041
-0.0505528
-0.0618404
-0.0186582
-0.0212469
0.0220558
0.00975265
-0.0174552
-0.0128742
-0.0337669
-0.0377614
-0.0350649
-0.0278631
0.101809
0.114291
0.0988328
0.0592409
0.250552
0.379933
0.454472
0.32929
0.223965
0.247937
0.266239
-0.0149098
0.00979727
-0.00283891
0.0371182
0.0296912
-0.044009
-0.0483164
-0.0445784
-0.0357684
-0.0274754
-0.0464775
-0.0548478
-0.0447143
-0.0490279
-0.0536349
-0.0587127
0.499817
0.493312
0.494884
0.488864
0.487576
0.501746
0.506051
0.508041
0.513521
0.515794
0.5059
0.51128
0.51522
-0.0173652
-0.0402063
-0.0432542
-0.0382125
-0.0379117
-0.0354493
-0.0373833
0.124185
0.0557251
0.0591625
0.0118871
-0.121342
-0.0631402
0.493126
0.491785
0.480369
0.721959
0.571153
0.492393
0.589521
0.695167
0.277322
0.473324
0.309029
0.888318
0.785618
0.931714
0.542346
0.247873
0.414497
0.45448
0.269572
0.346819
0.323112
0.212618
0.243017
0.283112
0.381051
0.267588
0.245285
0.00159466
0.192454
0.303121
0.285155
0.408745
0.468864
0.269282
0.188715
0.143571
0.605473
0.624763
0.638175
0.610515
0.633047
0.581798
0.573784
0.589171
0.597345
0.59101
-0.739798
-0.445841
-1.39374
-0.719737
-0.262453
0.5371
0.512157
0.770678
0.642755
0.669853
0.65413
0.616223
0.587521
0.613618
0.63365
0.337202
0.448018
0.422856
0.429476
0.332331
0.261964
0.561386
0.559202
0.592141
0.616135
0.587801
0.618375
0.511264
0.510983
0.510447
0.506692
0.504956
0.507293
0.0572774
0.0246437
0.0660992
0.0486089
0.0263116
0.0143369
-0.0193398
-0.0295927
-0.0359827
-0.0342327
-0.0195572
-0.0160436
0.174027
0.110525
0.030836
0.0593773
-0.00163109
-0.0701563
-0.0898457
0.0167363
0.11304
0.103237
0.405869
0.654554
0.474711
0.64213
0.485215
0.540901
0.468538
0.459499
0.484006
0.380924
0.461396
0.25791
-0.251509
-0.1611
0.79705
0.806761
0.581502
0.409734
0.176046
0.350207
0.538336
0.467197
0.502197
0.570872
0.557234
0.0354016
0.0905165
0.384972
0.611646
0.243898
0.234692
0.228072
0.414811
0.331604
)
;

boundaryField
{
    wall-4
    {
        type            zeroGradient;
    }
    velocity-inlet-5
    {
        type            zeroGradient;
    }
    velocity-inlet-6
    {
        type            zeroGradient;
    }
    pressure-outlet-7
    {
        type            fixedValue;
        value           uniform 0;
    }
    wall-8
    {
        type            zeroGradient;
    }
    frontAndBackPlanes
    {
        type            empty;
    }
}


// ************************************************************************* //
