/*--------------------------------*- C++ -*----------------------------------*\
| =========                 |                                                 |
| \\      /  F ield         | OpenFOAM: The Open Source CFD Toolbox           |
|  \\    /   O peration     | Version:  2206                                  |
|   \\  /    A nd           | Website:  www.openfoam.com                      |
|    \\/     M anipulation  |                                                 |
\*---------------------------------------------------------------------------*/
FoamFile
{
    version     2.0;
    format      ascii;
    arch        "LSB;label=32;scalar=64";
    class       surfaceScalarField;
    location    "82";
    object      phi;
}
// * * * * * * * * * * * * * * * * * * * * * * * * * * * * * * * * * * * * * //

dimensions      [0 3 -1 0 0 0 0];

oriented        oriented;

internalField   nonuniform List<scalar> 
1300
(
3.75095
5.62643
-3.30384
3.75095
-7.75501
5.62643
-4.40391
4.40391
-0.328372
0.328372
1.87639
1.87457
-2.69046
2.69046
-2.02594
2.02594
-2.52198
2.52198
-5.2464
5.2464
-5.06854
5.06854
4.65089
-4.65089
-6.31259
6.31259
-0.937813
0.937813
-3.68859
3.68859
3.16958
-3.16958
-1.97759
1.97759
0.092322
-0.092322
-0.553468
4.30442
3.19749
3.19749
-2.00837
2.00837
-4.86981
4.86981
6.21798
-6.21798
5.2846
-5.2846
-1.98077
-2.48297
1.80509
-11.4712
-5.94992
-5.94992
-8.44039
8.44039
-2.81396
2.81247
2.94644
-2.94644
-1.76826
1.76826
-4.36822
-0.0356838
-4.36822
4.37219
0.0317113
4.37219
-0.44296
0.114588
-0.44296
4.01286
-4.01286
0.219724
0.108648
0.219724
3.0654
-3.0654
-1.87712
3.75351
1.87383
-1.8719
6.17632
-1.87905
3.75362
-6.01442
6.01442
-2.93553
0.245075
-2.93553
2.47931
0.211151
2.47931
-6.85112
6.85112
-2.08219
0.0562528
-2.08219
1.97742
0.0485219
1.97742
2.8821
-2.8821
-2.62776
0.105786
-2.62776
2.39325
0.128723
2.39325
0.353518
5.27291
-5.97995
8.79242
-5.27291
0.0265094
5.20835
0.0380501
5.20835
-5.10587
0.0373351
-5.10587
5.01368
0.0548593
5.01368
4.73442
-0.0835278
4.73442
-4.76994
0.119056
-4.76994
-3.36802
-4.05151
-6.46307
0.150483
-6.46307
-1.02762
0.0898077
-1.02762
0.824997
0.112816
0.824997
-3.68812
3.68812
-4.11033
0.42174
-4.11033
3.12397
0.0456151
3.12397
1.86849
1.88247
5.61944
-5.61944
2.44986
-1.9335
-0.0440869
-1.9335
-2.06246
-3.22214
2.06246
-0.0848654
-0.132973
0.225295
-0.132973
3.15945
0.0380324
3.15945
2.23591
0.157338
-2.23591
0.22754
3.28047
-3.28047
1.33566
0.672714
1.33566
-5.56457
5.56457
4.95659
0.057091
-4.95659
0.0867824
6.15602
0.0619626
6.15602
-6.19952
-0.0184582
-6.19952
2.52624
-5.00921
-2.64419
6.13101
0.181578
-6.13101
0.181087
2.91842
0.0280205
2.91842
-2.91826
2.91826
-2.98486
0.0384191
-2.98486
-2.16665
0.39839
-2.16665
1.47035
0.297912
1.47035
-4.27164
-0.0965783
-4.27164
-4.26052
0.150197
4.26052
0.111669
1.13142
-1.13142
-0.575774
0.132814
-0.575774
-4.13739
-0.134258
4.13739
-0.124525
-3.90071
-0.112152
-3.90071
-3.02463
0.0397697
3.02463
0.0407746
3.11291
0.0465417
-3.11291
0.0475116
-1.87081
3.75328
-1.88014
3.75397
-5.63498
-0.379444
-5.63498
6.32538
-0.31096
6.32538
3.32933
0.359261
-3.32933
0.393795
2.3092
0.170109
2.3092
-6.81283
-0.0382904
-6.81283
6.83647
0.0146481
6.83647
2.17748
0.131719
-2.17748
0.0952866
1.9427
0.0347204
1.9427
2.90264
-0.0205418
2.90264
-2.87598
-0.00612402
-2.87598
2.7906
-2.7906
2.71524
0.0753607
-2.71524
0.0874819
-11.133
11.1145
-0.0351345
-11.0978
5.17322
5.17322
4.15978
0.57464
4.15978
-4.9887
0.218759
-4.9887
2.69243
-5.33662
3.0977
-6.46572
4.65744
-16.1287
4.28707
-8.33858
6.70302
-6.70302
6.59184
0.111184
-6.59184
0.128769
-1.14642
0.118795
-1.14642
-3.08712
-0.601006
-3.08712
4.3291
-0.640978
4.3291
-3.028
3.028
-3.0774
0.0494027
3.0774
0.0465673
1.92269
0.0200105
-1.92269
-0.0108184
0.155233
0.064491
-0.155233
0.0222596
3.49564
-0.215173
3.49564
-3.08104
-0.19943
-3.08104
-1.24551
0.0990985
1.24551
0.0901466
-5.81398
0.249409
-5.81398
-11.1908
0.0929731
-11.1528
-6.10655
-6.10655
2.33384
11.1263
-2.89382
0.0178391
2.89382
0.0246007
2.97464
0.0533535
-2.97464
0.0563807
-2.85754
0.0669331
2.85754
0.060725
-2.54109
0.374435
-2.54109
-1.07083
1.07083
-1.23479
0.163962
1.23479
0.235562
1.40483
-0.273409
1.40483
0.705791
0.119206
-0.705791
0.130017
-3.79846
-0.102243
-3.79846
6.56095
-0.235569
6.56095
-2.9652
-0.115833
2.9652
-0.0625616
-0.033343
11.1479
-5.13987
0.0340003
5.13987
-11.2098
11.2438
-3.21089
0.669808
3.21089
0.948881
5.28336
0.281217
-5.28336
0.294655
6.787
0.0494698
-6.787
0.0839738
-2.59485
-0.492263
-2.59485
-5.05371
-0.581268
5.05371
-0.724609
-11.4745
-0.203568
11.6781
-11.4196
6.01755
0.138464
-6.01755
11.3823
-1.0304
-0.101026
1.0304
0.0404311
1.73288
-0.328049
1.73288
3.69423
-0.198593
-3.69423
-0.104231
-6.7155
-0.0973247
6.7155
-0.154552
-2.14999
-0.444863
2.14999
-0.417111
-4.26713
4.30516
1.90919
-2.37876
-2.63045
-5.6009
1.85184
1.90144
4.3017
-10.124
-6.00473
-9.94288
7.26083
-6.96617
-9.23561
9.15208
7.91037
-8.02252
-5.7847
5.83126
6.48298
-6.44221
1.87884
1.87467
8.03029
-7.78522
-15.5805
15.2011
7.57422
-7.51797
15.7341
-15.7724
-17.8134
17.8629
-5.70815
5.81393
-6.7409
6.73478
-6.97717
6.91461
-2.83318
-3.63254
13.084
-12.9335
8.61886
-8.66295
-8.62942
9.05116
3.38261
0.922558
3.42915
-1.88213
3.76097
-1.87149
3.78068
2.74458
-5.57776
2.59204
-5.22249
4.38571
4.23315
-4.30085
-1.30006
-5.92497
5.95299
-5.81363
5.87436
9.15587
-9.19155
-1.88518
3.75985
-1.86879
3.77023
-3.425
-2.3597
3.37938
0.922319
8.05158
5.03238
-8.23316
-1.70972
-8.04923
7.85064
-8.23526
8.03583
-0.432424
5.81881
-5.38638
4.43738
-1.56392
7.38272
5.69691
5.91567
5.86616
-5.58494
1.10001
-6.4864
-6.39961
-2.2107
2.34351
2.11781
-2.00916
6.15926
1.75111
6.03473
-5.77053
-2.25199
-5.87278
3.82045
2.01082
3.86985
4.07855
2.40443
4.11832
3.0304
-3.036
0.00560333
-3.05669
6.08709
0.723841
-5.41639
-4.49408
4.9805
3.0498
5.19165
-5.5611
-2.22412
-5.16731
-9.52533
-6.05519
-10.1066
10.0679
5.13318
9.75695
-11.9372
11.7826
4.81405
2.76017
4.86257
-4.95678
-2.56119
-4.86149
11.6335
-2.64356
-8.98993
-10.2998
-7.51363
10.2852
5.44892
10.9403
6.92257
11.0243
4.41743
7.21607
-9.86635
2.35272
-3.86827
-1.83988
-3.78079
3.67609
2.13785
3.80481
-4.21766
-2.52324
-4.19982
-4.296
-2.68118
4.31654
2.41824
-4.41835
-3.81691
4.53419
2.38042
4.03432
-10.039
4.30426
-7.9368
-9.17602
-3.75746
-9.04725
3.54811
2.60641
-6.15452
-2.02965
8.5522
-4.31905
7.25214
-5.20318
-3.45977
-5.214
-6.89323
-1.73619
-6.74304
-8.86687
8.37461
-9.16247
8.52149
12.4896
-5.63336
-6.85622
-3.96848
-2.47373
3.92096
-0.491816
-3.71045
3.71606
0.0505161
3.8312
4.75375
4.26194
-3.8847
-1.92893
-3.82832
3.82437
2.04999
3.8913
6.84942
2.30644
6.88113
-6.6272
-2.56435
-6.72378
9.02616
-8.62777
2.83085
-2.73175
5.40282
2.63301
-5.18765
-2.86158
6.20813
-3.21995
-2.98817
-12.201
10.5238
1.67715
-4.81825
-0.380871
-0.473193
-5.48582
-3.74979
5.36676
0.548909
11.0727
7.32294
-5.51242
5.76183
6.16564
6.22273
-0.176888
5.79742
-5.12761
5.25466
-2.61981
-2.63485
5.4873
-5.62155
-1.23648
-5.54014
4.30366
0.413179
1.42314
-1.19784
-1.75396
-0.456743
-1.62394
1.21111
0.906697
1.2756
0.963244
1.38027
-2.95255
0.514305
2.43824
-1.9893
-1.49486
-3.85157
-1.14157
4.99314
5.7466
2.10403
-5.64237
-0.230402
2.50778
-2.39496
-0.804523
-3.04704
2.24356
-3.04808
-3.66529
-2.09725
5.76254
-3.36971
-0.45861
3.31636
0.553493
-3.82729
-2.09768
3.78887
0.329453
-3.12865
6.19124
-3.06259
-5.05758
2.52746
3.55963
4.53828
-4.78954
2.44781
2.34173
-1.2299
4.24702
0.944628
4.41713
-6.9498
4.72568
5.81104
3.24012
-6.1703
1.003
-5.9468
8.55109
-7.37766
-1.17344
4.16899
4.3821
7.0491
5.44047
-5.665
12.7141
-1.2073
-6.17036
7.1541
-3.91398
4.85444
-8.76842
-10.2949
4.12456
-9.11705
10.8916
-1.77451
-3.6179
-8.31929
12.735
-1.20209
-11.5329
8.55486
-4.28945
-4.40505
8.69449
-6.93301
6.96624
-1.99087
-4.97537
-10.0864
-5.686
10.1837
1.59894
-9.93811
12.2908
-2.72204
4.12887
0.733704
4.16359
3.30513
-5.49056
2.18542
3.62788
-5.61875
2.07836
-7.56892
-6.71781
12.0468
-5.32896
-10.4753
-9.4989
-0.976372
2.53324
9.7576
-9.4558
7.41066
2.04515
3.3002
0.591106
-3.37556
-0.405235
0.234093
4.51403
-4.74813
4.03891
4.19624
3.26396
1.25008
3.84568
2.10731
-3.87028
-0.329541
-4.16437
1.48319
-1.74613
-3.6949
5.1781
-4.06759
0.372684
-2.74386
-3.49726
6.24112
-4.58374
3.03504
3.1562
5.08503
-4.91334
1.41607
-2.39277
-2.52056
2.65151
-4.39764
1.99483
3.18327
4.37525
0.558345
5.87221
6.17456
-8.47862
0.54182
11.2069
-9.49723
2.46262
8.5617
-9.87327
0.37437
-8.67288
0.996406
-5.31545
-5.15811
5.20233
-6.93852
-3.5661
6.22168
0.659451
-6.33335
-0.409684
-6.02732
-2.83955
-6.47218
-3.0388
-6.12367
-8.7038
-1.64993
-7.05387
6.72468
-6.67243
-3.43417
7.39704
1.12445
-7.40168
7.30065
-7.48011
7.15207
0.0954631
3.62059
4.3574
1.88367
-2.39069
4.27436
-5.1244
7.43084
-8.73238
3.60798
4.21488
-6.77923
-4.5175
5.01467
4.01149
5.31259
8.86831
-10.3277
1.45941
-10.6314
11.9652
-1.33382
-16.3843
5.75289
-7.51601
2.43268
0.398175
2.55147
0.541151
2.49889
-3.04005
-2.1906
-2.10045
-2.44271
-3.46484
5.90755
1.08416
-3.53278
2.44863
-3.56756
4.65172
-0.221483
-3.3113
5.26664
-2.76774
5.66481
-3.78905
1.87577
3.44038
5.75401
-2.31363
4.39561
-1.7626
1.93082
-4.24444
-1.53402
-2.95561
5.09346
-3.28551
3.65819
-0.345335
4.00353
-4.04656
0.826612
-0.782608
3.41363
3.64118
4.31663
-3.06655
2.91599
-4.67859
-1.32845
-4.12024
-0.936975
-0.252381
-3.69301
3.94539
5.9669
-6.21928
-5.22719
9.51448
-4.28729
7.6831
-5.3747
-2.30841
-4.2451
-4.38267
3.87066
1.92676
9.60986
0.208382
-5.58308
-4.91923
-3.97035
3.09459
2.16007
-1.70962
3.38677
2.18281
-0.75967
0.427282
0.848323
1.77692
-1.34964
0.327261
1.44966
-0.870582
1.68946
0.818317
-1.80867
0.18473
-1.343
3.58656
1.09524
-2.00194
0.652298
0.97422
-3.59403
5.07755
-2.69607
-2.38148
6.05177
1.14119
-3.83726
4.39895
-3.98577
2.40209
-3.54367
-1.43517
-5.42094
-3.66983
-2.51553
4.96415
-3.39202
5.49606
1.29886
-5.26566
6.56452
-3.73129
1.63404
-3.04251
3.86082
-0.920427
-2.12208
2.90253
2.86001
-3.088
0.0409593
-0.185473
2.40625
-2.59172
-0.641828
-2.63113
-4.57367
4.90312
-2.10512
4.55293
2.16923
-1.91731
6.47024
1.80863
-3.72594
-3.24895
-3.70756
-1.38421
3.15407
-0.56947
-4.29202
-5.54484
4.1603
0.256827
-7.0667
7.88377
-0.817071
-4.0169
-0.708785
4.87778
-6.08798
0.469232
-4.00962
3.87415
4.81878
5.07561
-11.3126
-0.220276
-6.17941
1.1209
-7.30031
5.503
-3.53099
7.65554
-10.3076
6.8734
-9.18312
6.48211
-0.818204
6.23947
-4.05405
2.75046
-8.43646
-6.83752
5.55735
-2.79718
6.29105
-3.17527
9.46632
-5.89732
5.34171
4.12461
-1.03176
-4.18224
-5.34307
4.31131
-0.00136069
4.16223
4.98034
-2.87302
4.65079
2.27009
-4.66286
-2.12755
-6.49626
1.8334
-3.34006
-1.92132
3.75471
3.16371
3.75482
1.23415
-3.34958
7.20221
-8.17859
-1.87326
-3.28486
5.33264
-1.02133
3.44258
-6.72744
-1.87287
4.78096
-0.778398
-4.00256
0.852398
-4.41849
1.67562
-6.09412
5.2629
-5.67258
2.22159
-9.7376
-5.18009
-5.13966
-2.25776
-5.22235
-7.55778
5.30002
-1.80489
5.49576
-8.48769
7.70929
-3.47755
8.77757
-5.42261
-1.04957
5.83973
1.31234
10.0899
0.227598
-4.7451
-1.9257
3.83329
-1.9076
1.1689
-3.46541
0.367882
2.49637
3.5554
-6.80003
0.0207976
-4.7243
-3.91312
7.92461
5.60136
11.5683
1.24054
9.10321
-1.17861
10.3438
4.13398
4.36954
-2.98067
4.44009
0.964715
4.5727
-0.926866
2.80263
1.6246
1.71441
0.680552
2.30355
1.33763
3.13016
0.0901163
-2.01034
4.61671
-8.58706
-0.966363
-8.01242
1.13966
5.70377
-4.56411
2.91852
-0.758453
1.01092
-0.139733
-1.17189
1.31163
-2.77459
-1.93156
-0.4819
-1.69865
2.35095
1.88791
-1.86905
-0.905539
0.352519
-4.02235
3.19115
-3.15019
-0.290181
6.27434
-2.81539
0.223664
-1.18134
-2.40747
-2.86421
2.67948
6.17631
0.293925
3.11372
5.19704
3.09936
0.226338
3.88021
-5.65472
-3.68871
-5.87499
-0.371995
4.50578
1.76772
7.98987
5.89233
4.87101
-1.85643
-10.035
6.50532
-2.06524
5.17151
-1.16894
-4.92517
5.05266
2.37818
-5.71211
0.0395313
-4.88564
-6.95088
-0.511044
8.22034
-9.57887
8.5293
5.68975
1.36412
-4.39881
-0.740845
4.23485
0.134693
10.4784
-1.12957
-6.69877
7.82833
-4.5742
3.60784
0.729768
2.657
2.04139
1.28294
-5.41583
-9.97994
-2.07277
-1.52126
-4.45425
0.53889
-2.4268
6.21443
-2.60659
3.90602
5.22175
6.23267
-2.1264
-4.09288
6.41369
-2.50767
3.725
)
;

boundaryField
{
    wall-4
    {
        type            calculated;
        value           uniform 0;
    }
    velocity-inlet-5
    {
        type            calculated;
        value           uniform -3.75095;
    }
    velocity-inlet-6
    {
        type            calculated;
        value           uniform -5.62643;
    }
    pressure-outlet-7
    {
        type            calculated;
        value           nonuniform List<scalar> 8(3.30384 7.75501 4.46373 9.66616 7.41953 5.17043 5.79013 8.94451);
    }
    wall-8
    {
        type            calculated;
        value           uniform 0;
    }
    frontAndBackPlanes
    {
        type            empty;
        value           nonuniform List<scalar> 0();
    }
}


// ************************************************************************* //
