/*--------------------------------*- C++ -*----------------------------------*\
| =========                 |                                                 |
| \\      /  F ield         | OpenFOAM: The Open Source CFD Toolbox           |
|  \\    /   O peration     | Version:  2206                                  |
|   \\  /    A nd           | Website:  www.openfoam.com                      |
|    \\/     M anipulation  |                                                 |
\*---------------------------------------------------------------------------*/
FoamFile
{
    version     2.0;
    format      ascii;
    arch        "LSB;label=32;scalar=64";
    class       volVectorField;
    location    "82";
    object      U;
}
// * * * * * * * * * * * * * * * * * * * * * * * * * * * * * * * * * * * * * //

dimensions      [0 1 -1 0 0 0 0];

internalField   nonuniform List<vector> 
918
(
(0.98516 -0.000508334 0)
(0.00501551 2.96625 0)
(0.00750491 0.884412 0)
(0.979705 0.00214506 0)
(-0.0120964 2.06219 3.78653e-20)
(-0.00704863 2.9488 -2.43796e-18)
(0.822159 1.16794 4.51766e-19)
(0.0988404 0.0686207 -1.45268e-20)
(0.999909 -0.000275271 0)
(0.0666163 0.736164 0)
(0.0183791 0.477259 0)
(0.731639 0.00646444 0)
(0.0111142 2.93034 0)
(0.00300408 2.79499 0)
(-0.0178408 3.14661 7.82308e-19)
(-0.0211474 1.91744 1.21161e-20)
(0.286939 0.0594825 1.01838e-18)
(0.189183 1.14464 3.18013e-19)
(0.962711 0.00501673 0)
(0.00639906 0.435773 0)
(-0.00770329 0.023168 -6.70428e-19)
(1.00197 -0.00497419 0)
(1.00023 -0.00978312 0)
(0.975741 -0.00643859 0)
(0.598197 0.0303783 0)
(0.0132708 2.64288 0)
(-0.0147561 2.90994 8.95012e-19)
(0.0117721 0.928453 0)
(-0.020417 1.18391 0)
(0.0140841 0.912399 0)
(-0.0149533 2.58615 0)
(-0.000980647 2.11589 -3.02417e-20)
(-0.0110726 1.89771 0)
(-0.0206037 2.98761 -8.75375e-23)
(-0.0166828 3.00529 1.89467e-18)
(0.00210307 3.00018 0)
(0.871473 -0.00965811 0)
(0.401305 0.930485 1.80906e-19)
(0.809011 1.18138 -5.17871e-19)
(0.959902 1.02842 5.63335e-19)
(0.67654 1.27311 -1.05284e-19)
(0.676265 1.24688 6.02887e-19)
(0.12462 0.120767 1.41699e-20)
(0.135492 0.0576119 0)
(1.16662 0.566311 0)
(0.0905699 0.0891961 6.38391e-20)
(0.062391 0.0461759 -6.62566e-20)
(0.91993 -0.00745775 0)
(1.00027 0.000162855 0)
(0.999909 0.000339645 0)
(1.00363 -0.00775702 0)
(1.00096 -0.000918019 0)
(1.00017 3.83171e-05 0)
(0.0728106 1.82647 -7.68054e-19)
(0.0325071 0.947051 0)
(0.0985009 0.815497 0)
(0.0144524 0.894614 0)
(0.0418148 0.655798 0)
(0.00689305 2.01578 0)
(0.00213453 0.774749 0)
(0.0189852 0.498609 0)
(-0.00336951 0.760898 0)
(0.0098596 0.459621 0)
(0.842192 -0.0156608 0)
(0.842497 0.026836 0)
(0.757792 0.00334217 0)
(0.801217 0.0291605 0)
(0.700753 0.0181593 0)
(0.0146853 3.00041 9.0331e-19)
(0.0114985 3.00806 0)
(0.00611055 3.00275 0)
(0.0135479 2.99737 1.02434e-23)
(0.0079617 2.95847 -1.34254e-18)
(0.0144838 2.98199 0)
(0.0108553 2.90362 0)
(0.0246907 2.9306 2.04194e-24)
(0.00459957 2.82488 0)
(0.0306329 2.91637 0)
(-0.00536343 2.74638 0)
(0.303781 3.53784 0)
(-0.131473 3.61821 0)
(0.137012 3.23631 -7.28003e-19)
(-0.0137871 2.97544 0)
(-0.0269225 1.98569 0)
(-0.00691303 2.16909 -1.195e-20)
(-0.0151485 1.92571 6.86844e-21)
(0.337775 0.138035 -3.53626e-19)
(0.317836 0.035461 -3.43645e-19)
(0.292243 0.141423 -1.0589e-18)
(0.251247 0.0656713 -6.8787e-19)
(0.229788 0.985731 0)
(0.272825 1.29482 -3.69887e-19)
(0.367286 1.23002 6.17197e-19)
(0.987426 0.00857536 0)
(0.941846 0.00581002 0)
(1.0003 0.000581725 0)
(1.00286 0.00931039 0)
(1.00301 0.00847349 -2.7465e-18)
(0.991906 0.00969524 2.07405e-18)
(-0.0145323 0.759869 0)
(0.00903495 0.440147 0)
(-0.0532145 1.00791 0)
(-0.0316173 0.810377 0)
(0.00228578 0.443214 0)
(-0.0876239 0.0838429 2.08167e-19)
(0.0379087 0.0531988 0)
(0.993556 -0.00836827 0)
(0.954475 -0.00653436 0)
(0.743863 0.0297543 0)
(0.678445 0.027851 0)
(0.660803 0.0254563 0)
(0.972838 -0.00709224 0)
(0.587038 0.0737976 0)
(0.456758 -0.00301585 1.54213e-18)
(-0.0371415 2.86227 6.55389e-19)
(0.0412746 2.91021 0)
(0.0535729 2.88604 0)
(-0.00444138 2.70111 0)
(-0.0134475 2.98503 8.46729e-19)
(-0.0178396 2.89486 0)
(-0.0154678 2.98806 -2.62714e-18)
(-0.0132853 2.92514 8.99675e-19)
(-0.0350629 1.35187 0)
(-0.00668226 1.38262 0)
(-0.00711553 2.13397 5.74771e-22)
(-0.00610767 2.09583 0)
(-0.023283 1.90501 0)
(0.938709 -0.00735426 0)
(0.857672 -0.0099717 0)
(0.862795 0.00532013 0)
(0.949675 -0.00778683 0)
(0.884143 -0.00819952 0)
(0.512407 1.12315 -2.28364e-19)
(0.561617 1.1741 0)
(0.366113 0.875545 3.36825e-20)
(0.309062 0.734332 0)
(0.922452 1.06423 -1.55669e-19)
(1.04199 0.874208 3.18186e-19)
(0.360246 1.357 0)
(0.528622 1.32846 0)
(0.550076 1.26697 0)
(0.121548 0.185017 -3.03067e-19)
(0.159888 0.113599 0)
(0.171611 0.0970715 1.89198e-19)
(1.01268 0.928397 0)
(1.08721 0.78196 0)
(1.11256 0.723715 -2.54531e-19)
(1.14597 0.625761 0)
(1.19605 0.408819 5.78396e-20)
(0.957812 -0.00868177 0)
(0.962545 -0.0100195 0)
(0.901808 -0.00798842 0)
(0.984212 -0.00913906 0)
(0.974728 -0.00932093 0)
(0.937155 -0.00637504 0)
(1.00019 0.00234125 0)
(1.0009 0.00141756 0)
(0.999909 0.000856164 0)
(0.0355472 2.07242 4.2581e-19)
(0.118538 1.76952 0)
(0.0181688 2.18595 6.53525e-19)
(0.0459542 1.88071 -5.43944e-19)
(0.106905 1.14969 -2.6042e-19)
(0.0496883 1.02828 0)
(0.142968 0.981693 0)
(0.00884985 0.846687 0)
(0.0207598 0.592561 0)
(-0.000925025 2.2418 -7.63409e-22)
(0.0160241 2.01972 0)
(-0.00181537 2.24438 -2.50584e-20)
(0.00827552 2.02529 3.68615e-20)
(0.00608972 0.816089 0)
(0.00396965 0.793323 0)
(0.0148329 0.540492 0)
(-0.00993353 0.754958 0)
(0.0058029 0.443897 0)
(0.938885 0.00987567 0)
(0.851004 -0.0145979 0)
(0.927936 0.000503357 0)
(0.842918 -0.0128694 0)
(0.809843 0.000147515 0)
(0.899103 0.0211885 0)
(0.875271 0.0243603 0)
(0.783557 0.000244841 0)
(0.00572919 3.06493 -8.40389e-21)
(0.0166284 3.05759 0)
(0.014633 2.96902 0)
(0.00872915 2.87627 0)
(0.91838 3.94849 0)
(1.23116 3.28232 9.23454e-19)
(0.0687264 3.06786 0)
(-0.0296914 2.90108 0)
(-0.0106462 1.40577 0)
(-0.0327676 1.69975 0)
(-0.0192326 1.53748 0)
(-0.0307055 2.54541 -9.1136e-21)
(-0.0150509 2.23865 0)
(-0.020688 2.38542 0)
(-0.00110659 1.95276 6.79389e-22)
(-0.00356446 2.24024 -1.14613e-20)
(-0.00540807 2.20395 -7.16724e-21)
(-0.0090014 1.93747 0)
(0.388565 0.121869 5.40461e-19)
(0.366802 0.0218455 -5.30346e-19)
(0.258383 1.58523 0)
(0.278207 0.758916 -3.15633e-19)
(0.176848 1.67254 -1.04624e-18)
(0.225691 1.22141 1.0485e-18)
(0.901937 0.00613507 0)
(0.967337 0.0112223 0)
(0.974517 0.0108315 0)
(0.923257 0.00633023 0)
(-0.0117051 0.752285 0)
(-0.0137164 0.75202 0)
(0.00697663 0.434527 0)
(0.0794468 0.064113 5.86842e-19)
(0.075104 0.0395222 -6.90793e-19)
(0.0370275 0.0370409 0)
(1.10198 0.0871548 2.69596e-20)
(1.08398 0.0400361 0)
(1.01518 0.0404492 0)
(0.908643 -0.00502045 0)
(0.44184 0.103514 0)
(0.501401 0.0872537 -2.46486e-18)
(0.410431 0.0154537 9.2206e-19)
(0.00858672 2.98092 7.06832e-19)
(-0.0325182 2.86507 4.63476e-20)
(0.00358408 3.05036 -1.7807e-20)
(0.0201825 3.04325 6.32599e-19)
(-0.0149754 2.99658 2.95597e-20)
(-0.0129331 2.94944 -1.18921e-22)
(-0.0172754 3.01193 -5.47342e-19)
(0.0149095 3.02369 3.96881e-19)
(0.00743609 3.03696 -6.28109e-19)
(0.934246 -0.00114812 0)
(0.939639 -0.00315007 0)
(0.846249 -0.0094591 0)
(0.956388 0.01215 0)
(0.94237 0.0136298 0)
(0.881408 0.00548138 0)
(0.916185 0.0176861 0)
(0.925383 0.0155031 0)
(0.83742 0.00227669 0)
(0.714704 1.39981 3.79989e-20)
(0.74799 1.50831 0)
(0.179912 0.312558 7.05885e-20)
(0.229989 0.669266 5.67486e-19)
(0.26216 0.718902 -3.31669e-19)
(0.261846 0.517143 6.60325e-19)
(0.347202 0.813209 1.59469e-18)
(0.141301 0.231061 3.7634e-19)
(0.248214 0.143863 7.27594e-19)
(0.207907 0.135625 1.88443e-19)
(0.214832 0.0762926 3.56897e-19)
(1.18496 0.466933 6.80663e-20)
(1.19964 0.258633 6.30705e-20)
(0.010359 2.23469 2.50894e-19)
(0.0402922 1.94901 0)
(0.971818 0.0296632 0)
(0.944072 0.0140932 0)
(0.870116 -0.0177299 0)
(0.0114239 3.07431 0)
(0.0197725 2.94422 1.15666e-18)
(0.0163817 2.95636 0)
(0.00638958 2.8505 -1.14737e-18)
(0.00637543 3.09172 2.80593e-19)
(0.00693883 3.08219 0)
(0.780676 1.80927 -1.57709e-19)
(1.23899 2.48384 3.99701e-19)
(0.762572 1.94845 -1.22307e-18)
(0.019402 2.98055 -6.06819e-19)
(0.0346061 2.99825 0)
(-0.03507 2.87577 0)
(-0.00397591 2.22396 -1.31484e-20)
(-0.0031351 2.24483 1.96446e-20)
(0.0016 1.98759 -7.22691e-21)
(0.278304 1.39491 1.02417e-18)
(0.240046 0.55464 -7.02181e-19)
(0.0637184 1.99734 7.59945e-19)
(0.135032 1.88362 -9.0778e-19)
(0.180065 1.5126 9.52699e-20)
(0.00533883 3.11846 -1.55785e-18)
(0.0112263 3.11926 1.70636e-18)
(-0.00933878 2.98052 7.78696e-19)
(-0.00449238 2.97714 -7.33853e-19)
(-0.0213465 2.88043 -7.93093e-19)
(0.0083843 3.09931 -2.08339e-18)
(0.00145894 3.10545 2.10113e-18)
(0.283354 0.696189 0)
(0.249269 0.684663 -1.18183e-18)
(0.0958516 0.224822 5.24663e-19)
(0.358481 0.940644 1.11416e-18)
(0.196353 0.277345 -1.71786e-18)
(1.18992 0.176329 6.19573e-20)
(1.19995 0.313587 0)
(1.17831 0.123657 -4.80133e-21)
(0.00158726 2.2534 -1.42009e-21)
(0.00501429 2.24471 0)
(0.0246261 1.98493 0)
(0.339879 1.30397 -3.67616e-19)
(0.375369 1.15241 -8.0004e-19)
(0.211097 0.379776 1.42703e-18)
(1.00588 -0.0108225 0)
(1.00767 -0.00763043 5.06632e-19)
(-0.0296674 1.33285 0)
(-0.0424267 1.33335 0)
(1.00221 0.00351695 1.81289e-21)
(1.00367 0.00947503 1.03453e-18)
(-0.019153 2.53026 1.15512e-20)
(-0.0242491 2.57293 0)
(0.0333315 3.17622 3.98665e-19)
(0.388738 3.48128 0)
(1.17898 0.668012 -5.53637e-20)
(1.01283 0.0131451 -2.12753e-21)
(1.02136 -0.0102649 0)
(1.0017 0.000135489 8.03102e-23)
(0.113033 1.37201 0)
(0.14329 2.56544 0)
(0.0353529 1.31595 0)
(0.000258178 2.61722 2.43807e-20)
(-0.021259 2.57427 -8.25648e-22)
(0.999611 0.0311457 2.56755e-21)
(1.06334 0.00492155 0)
(1.09801 0.0255645 0)
(-0.0311084 1.74332 0)
(-0.0187476 2.57439 0)
(-0.00868592 1.32196 0)
(0.311497 1.48461 -1.68694e-19)
(1.01131 -0.0096072 0)
(1.0094 -0.0149141 0)
(1.00237 0.000760726 6.47504e-19)
(1.00547 -0.00479394 -7.61009e-19)
(1.00118 -0.00096382 0)
(-0.0185465 1.47314 0)
(-0.00788521 1.38601 0)
(-0.0105278 1.43086 0)
(-0.0128087 1.30864 0)
(-0.0251202 1.29544 0)
(-0.016173 1.27984 0)
(1.03511 -0.00599965 0)
(1.01968 0.0159704 -9.29395e-22)
(0.824744 1.27714 2.6322e-19)
(1.00223 0.00032792 -6.44942e-19)
(1.00406 0.00526662 7.55159e-19)
(1.00118 0.00207946 0)
(1.0127 0.0103947 6.4198e-19)
(1.00797 0.00832017 -7.77875e-19)
(1.00856 0.0146857 0)
(-0.0238148 2.6017 0)
(-0.0259176 2.58074 -2.16184e-20)
(-0.023155 2.59512 1.53493e-20)
(1.23978 0.270068 5.77116e-19)
(1.16395 0.0878766 0)
(0.0384923 3.07846 -8.94387e-19)
(0.0648224 2.85702 -6.50433e-20)
(0.137352 3.19157 1.37193e-18)
(0.132455 3.21898 -1.91074e-19)
(0.13233 3.22929 0)
(0.0183544 3.13717 2.30806e-19)
(0.0731739 3.15965 8.81875e-19)
(0.0660989 3.18454 -4.35195e-19)
(0.0211591 3.12986 0)
(0.553165 0.282085 0)
(0.489543 0.301776 0)
(1.15131 0.704342 1.24001e-19)
(1.14429 0.825873 -1.05521e-19)
(1.2068 0.590891 0)
(1.23394 0.524404 0)
(1.01599 0.0133999 -1.19658e-18)
(1.01496 0.0142503 1.5023e-18)
(1.02542 -0.00978142 0)
(1.02349 -0.0118296 0)
(1.00642 0.00266275 0)
(1.01042 0.00376716 0)
(1.00458 0.00187646 0)
(1.00978 0.00627184 0)
(1.0078 0.00597144 0)
(1.00451 0.00473582 0)
(0.101544 1.37051 0)
(0.0986133 1.33269 0)
(0.131982 1.40703 0)
(0.150234 1.41146 0)
(0.145355 2.59061 0)
(0.184848 2.66125 -4.21598e-19)
(0.101676 2.64561 0)
(0.0853799 2.64867 1.96544e-19)
(0.0390844 2.67181 -1.44352e-19)
(0.0223739 1.33172 0)
(0.0321748 1.24926 0)
(0.0248291 1.34169 0)
(0.0469758 1.26971 0)
(0.00439674 1.98185 7.54078e-21)
(-0.0201291 2.60205 -2.46148e-20)
(-0.0078003 2.65855 7.94205e-21)
(-0.0177736 2.67805 0)
(-0.0231821 2.60761 7.00419e-21)
(-0.0233013 2.60257 2.03445e-20)
(0.0131311 1.97985 -2.14868e-21)
(-0.00759556 2.38887 3.30215e-20)
(-0.0129717 2.41195 -9.00733e-21)
(1.01216 0.0398375 1.21097e-18)
(1.00522 0.0211808 -1.50772e-18)
(1.00422 0.0471766 -1.23399e-18)
(0.978577 0.0381296 1.55312e-18)
(1.06454 0.00872878 0)
(1.04962 -0.00810826 0)
(1.0951 0.0356221 0)
(1.07473 0.0133027 0)
(1.07252 0.000989208 0)
(1.14105 0.0847095 0)
(1.1126 0.0454357 0)
(1.11679 0.033095 0)
(-0.0262251 2.42421 1.59891e-21)
(-0.0159658 2.01233 0)
(-0.0180871 2.212 0)
(-0.0206331 2.59503 -1.34839e-20)
(-0.0177643 2.60532 2.94779e-22)
(0.00104966 1.58563 -4.1441e-20)
(-0.00952156 1.51328 4.22485e-20)
(-0.0191087 1.40271 0)
(-0.0226127 1.40937 0)
(-0.029776 1.40374 0)
(-0.005318 1.32341 0)
(0.00985795 1.24269 0)
(0.387686 1.50207 2.74801e-19)
(0.431015 1.50265 1.45639e-19)
(0.597011 2.4413 -2.40371e-19)
(0.397372 2.53868 7.06659e-19)
(0.348542 2.04839 7.15925e-20)
(1.0211 -0.00808531 0)
(1.01552 -0.00972936 0)
(1.01493 -0.0154973 0)
(1.0074 -0.00104662 0)
(1.00493 -0.000900268 0)
(1.00779 -0.00466785 0)
(1.00928 -0.00357897 0)
(1.01424 -0.00433973 0)
(1.02039 0.016592 1.17246e-18)
(1.0175 0.0156693 -1.5008e-18)
(1.02069 0.0188847 -1.18204e-18)
(1.01805 0.0173298 1.48104e-18)
(0.787957 1.32748 0)
(0.723162 1.37873 2.4885e-19)
(0.901091 1.2277 1.0054e-19)
(0.946951 1.17352 -1.33805e-19)
(1.15286 2.59546 2.82932e-19)
(0.764041 0.123476 6.00417e-19)
(1.16455 0.1108 0)
(1.21432 0.196756 -4.64632e-19)
(1.20192 0.156906 -1.98172e-20)
(1.00579 0.159042 0)
(0.125911 2.95887 5.2152e-19)
(0.101754 2.86451 -1.13494e-18)
(0.00675916 2.37825 7.55325e-19)
(0.10797 -0.181491 -3.07636e-19)
(0.333988 3.41182 -2.18149e-19)
(0.189956 3.30713 0)
(0.234045 3.34692 2.8411e-19)
(0.236997 3.03084 -1.75147e-18)
(0.329596 3.18843 0)
(0.00651282 3.12082 4.52826e-20)
(0.0171687 3.12944 -5.32047e-19)
(0.0150362 3.12556 7.8308e-19)
(0.0341071 3.13948 0)
(0.0322067 3.15014 0)
(1.20742 2.59233 0)
(0.550653 0.796792 -5.26227e-19)
(1.07072 0.998462 -1.20315e-20)
(1.00633 1.08253 0)
(0.860081 0.977056 -1.08534e-19)
(1.0977 0.899495 2.78309e-20)
(0.2807 0.306095 -8.14236e-19)
(0.640004 0.326358 -1.61918e-20)
(0.521372 0.220367 4.04812e-19)
(0.510876 0.337897 2.89071e-20)
(0.397002 0.265426 -1.15822e-18)
(0.592768 0.32672 0)
(0.710092 0.432819 6.60171e-19)
(0.706731 0.433163 0)
(0.55275 0.34241 0)
(0.458433 0.23992 0)
(0.833137 0.630937 4.05437e-19)
(1.24123 0.292609 -4.85271e-19)
(1.24194 0.432369 0)
(1.24996 0.372379 0)
(0.670885 0.195199 6.21332e-19)
(0.877495 0.562063 -3.69715e-19)
(0.777382 0.540314 6.6037e-19)
(0.963563 0.452696 -7.31162e-19)
(1.01914 0.0150499 8.04915e-19)
(1.01747 0.0144053 -8.08745e-19)
(1.01582 0.0153415 0)
(1.03658 -0.00553884 0)
(1.02997 -0.00832978 -7.57797e-19)
(1.02803 -0.0119271 7.50266e-19)
(1.02491 0.0107395 0)
(1.02338 0.0145637 0)
(1.01142 0.00419866 0)
(1.01417 0.00920968 0)
(1.01517 0.00423489 0)
(1.01428 0.00293884 0)
(0.0724433 1.35391 0)
(0.0796919 1.29891 0)
(0.148589 1.38858 8.50352e-21)
(0.282163 1.48296 8.96998e-20)
(0.177275 1.4537 1.88654e-19)
(0.209777 1.45893 -3.07616e-19)
(0.177498 1.41385 0)
(0.136269 1.59978 -7.0229e-20)
(0.120055 1.5794 0)
(0.344334 1.99721 -1.04106e-19)
(0.340936 2.3345 6.12477e-19)
(0.196226 1.4664 6.12232e-20)
(0.269558 1.39995 2.35334e-20)
(0.20274 1.39299 -1.90009e-20)
(0.279402 1.34283 -1.03859e-19)
(0.242827 1.57848 0)
(0.269488 1.61512 1.12784e-19)
(0.0312185 2.25497 -2.82071e-20)
(0.0440939 2.66088 0)
(0.0668433 2.39133 1.34683e-19)
(0.0635418 2.41201 0)
(0.0699144 2.66226 -2.17821e-19)
(0.0495636 2.69114 0)
(0.0297368 1.44998 3.87694e-20)
(0.0367895 1.49702 0)
(0.0346742 1.41459 0)
(0.0298634 1.42139 -4.37507e-20)
(0.00106748 2.64473 -1.67204e-20)
(0.0301363 2.69025 1.61577e-19)
(0.0108184 2.71554 1.13252e-21)
(0.00547952 1.84046 -9.80973e-21)
(-0.00104242 1.69466 -5.67266e-21)
(0.0186211 1.30963 0)
(0.0280873 1.22542 0)
(0.0462346 1.59671 -3.11854e-20)
(0.0357198 1.47655 -3.73019e-20)
(0.0393361 1.53958 4.66183e-20)
(0.0412057 1.62007 0)
(-0.0302978 2.2657 1.06357e-19)
(-0.031329 2.54181 -4.4256e-20)
(-0.0173517 2.44023 5.26633e-21)
(-0.00229865 1.85575 1.18867e-20)
(-0.0262061 2.49299 4.84419e-21)
(-0.0205531 2.43764 -8.95739e-21)
(1.01892 0.0222747 -8.03684e-19)
(1.01569 0.02856 8.06641e-19)
(1.01258 0.018261 0)
(1.00924 0.0714637 1.13056e-18)
(0.991718 0.0620002 -1.26218e-18)
(0.951025 0.056613 1.41124e-18)
(1.01321 0.112046 -1.50463e-19)
(1.04303 -0.00550459 0)
(1.05149 -0.00106305 7.22477e-19)
(1.03934 -0.00966895 -7.2397e-19)
(1.07235 0.0433185 -4.29658e-20)
(1.06523 0.0244265 3.70592e-19)
(1.06306 0.0575811 0)
(1.05425 0.0510635 -1.3332e-19)
(1.03207 0.0423304 0)
(1.02664 0.038627 0)
(1.02797 0.0139337 0)
(1.02397 0.0166486 0)
(1.04022 0.0333645 2.74574e-19)
(1.0388 0.0270608 -6.07074e-19)
(1.05148 0.034923 -2.9096e-19)
(1.0483 0.0350822 -3.20502e-19)
(1.07179 0.0659801 6.25444e-19)
(1.09738 0.0538072 0)
(1.10693 0.0982663 0)
(-0.0261514 2.27028 5.87605e-20)
(-0.0257739 2.01849 1.4376e-21)
(-0.0219017 2.02586 0)
(-0.0271441 2.4385 -5.84855e-20)
(-0.0224902 2.39479 -2.96568e-21)
(-0.033341 2.46514 6.24635e-21)
(-0.0207477 2.6149 -1.79667e-20)
(-0.0236201 2.55621 4.99925e-22)
(-0.0223422 2.50841 -5.22999e-21)
(-0.0159199 2.60842 1.35801e-20)
(-0.0209301 2.61061 -1.49693e-20)
(-0.00778712 1.51365 -1.00992e-21)
(0.00148894 1.63274 -4.09582e-20)
(0.372759 1.451 -1.16053e-19)
(0.372774 1.38389 3.77514e-20)
(0.663822 1.42852 -2.40701e-19)
(0.53006 1.49539 -1.43008e-19)
(0.588114 1.46139 0)
(0.592722 2.41846 2.06851e-19)
(0.661336 2.41452 3.3747e-19)
(0.410729 2.50766 8.81754e-20)
(0.401965 2.53164 -6.06926e-19)
(0.50957 2.47218 6.1358e-19)
(0.552804 2.45511 0)
(0.48728 2.51304 -5.5853e-19)
(0.248013 2.58497 1.13935e-18)
(0.354351 2.557 -7.69877e-20)
(0.283501 2.64672 -1.5821e-18)
(0.948082 2.37128 7.29297e-19)
(0.837909 2.377 0)
(1.01109 0.000553919 2.62677e-20)
(1.01538 -0.0053384 -2.1306e-20)
(1.01769 -0.00343703 -3.89131e-19)
(1.01506 -0.000795566 3.91249e-19)
(1.01248 0.00130722 0)
(0.651279 1.29255 0)
(0.675485 1.18637 0)
(0.789942 1.10578 0)
(0.668698 1.14968 0)
(1.183 2.60892 6.01168e-20)
(1.07097 2.35638 0)
(0.832317 2.15731 3.88438e-21)
(0.822701 2.42483 0)
(0.920993 2.5191 -4.23847e-19)
(0.956171 2.47522 2.81903e-19)
(0.795706 0.18399 0)
(0.736128 0.156884 1.62937e-19)
(0.905558 0.153237 9.48975e-19)
(0.82139 0.156351 -3.54957e-19)
(0.775339 0.0905165 -1.09748e-18)
(1.08319 0.244001 -8.91154e-19)
(1.00005 0.308371 -1.80645e-20)
(0.926812 0.312427 8.58761e-19)
(1.00674 0.237794 7.21772e-19)
(0.947325 0.201702 -1.25509e-18)
(0.908371 0.206184 1.57024e-19)
(0.946466 0.273785 -3.32968e-19)
(0.924341 0.232549 0)
(0.995741 0.198298 6.1882e-19)
(1.04715 0.196736 0)
(1.0451 0.22549 0)
(1.1082 0.122768 2.89776e-19)
(1.07216 0.18304 -1.52094e-20)
(1.07653 0.243883 -1.57672e-19)
(1.10191 0.209543 0)
(1.02106 0.0467922 6.19299e-19)
(1.0399 0.0600189 7.72775e-19)
(1.03363 0.0453242 -6.15435e-19)
(1.04236 0.0680676 -5.18521e-19)
(1.01749 0.0762945 -7.96583e-19)
(0.984059 0.161332 0)
(0.988956 0.106617 0)
(0.965932 0.0771107 -5.02076e-19)
(0.903936 0.0982638 1.99914e-19)
(1.04033 0.108958 7.16343e-19)
(1.06943 0.126132 -8.35951e-19)
(1.07661 0.158829 7.4649e-19)
(1.03187 0.153608 0)
(1.07493 0.113443 0)
(1.05384 0.0940725 -3.42637e-19)
(1.04421 0.0998453 -5.84383e-19)
(0.578595 1.04959 1.41852e-19)
(0.601699 1.37153 -4.35894e-20)
(1.15299 2.72445 -2.30925e-19)
(1.21835 3.06706 2.98496e-21)
(1.24444 2.70752 -1.27561e-19)
(1.27244 2.69035 -2.92472e-20)
(1.19932 2.33044 -1.13093e-20)
(1.20615 2.97084 -9.69987e-20)
(1.22655 2.93647 2.39704e-19)
(1.20817 3.21953 -1.40997e-19)
(1.36724 2.94986 1.94766e-19)
(1.35512 2.86776 0)
(0.57137 0.806451 -5.06866e-20)
(0.0991277 1.21369 5.66072e-19)
(0.566464 0.322126 5.35221e-19)
(0.403045 0.0665798 5.74787e-19)
(0.451253 0.309136 6.57412e-19)
(0.54568 0.425297 -1.07146e-18)
(0.549157 0.41938 8.77426e-19)
(0.450947 0.285672 -3.32169e-19)
(0.304334 0.214049 7.43761e-19)
(0.699668 0.272584 -3.59268e-19)
(0.654791 0.294341 0)
(0.583333 0.208239 6.10473e-21)
(0.74498 0.515105 3.57681e-19)
(0.728418 0.486722 -1.30008e-18)
(0.624765 0.448526 9.12169e-21)
(0.616199 0.43883 0)
(0.699182 0.718597 3.94867e-19)
(0.8618 0.783377 3.90752e-19)
(0.786076 0.865958 -4.57363e-19)
(0.907196 0.820761 -1.52243e-19)
(0.938179 0.865913 -3.65363e-20)
(0.945165 0.8656 3.74157e-20)
(0.872444 0.666106 -6.71736e-19)
(0.952348 0.718515 1.41351e-19)
(1.01247 0.733125 0)
(1.00312 0.709376 -1.90873e-19)
(1.02988 0.349208 2.10992e-19)
(1.15144 0.309457 2.86055e-19)
(1.0713 0.281698 3.64187e-19)
(1.02067 0.382184 -4.29387e-19)
(1.06973 0.444495 0)
(1.12624 0.424287 0)
(0.920896 0.385658 1.183e-21)
(0.836117 0.320464 0)
(0.886257 0.319185 4.06027e-19)
(0.909948 0.320699 -8.43247e-21)
(0.958757 0.456477 2.0364e-18)
(0.920505 0.512056 5.2253e-19)
(0.92455 0.478774 -5.57979e-19)
(0.838216 0.467381 5.99383e-19)
(0.822824 0.462762 3.596e-19)
(0.792364 0.446003 -3.52981e-19)
(1.02745 -0.000142046 6.48237e-19)
(1.02005 0.000149455 0)
(1.01857 0.00107518 4.22702e-19)
(1.02179 -0.00145197 -9.57532e-19)
(1.0224 0.00462027 4.65169e-19)
(1.02032 0.0116874 -9.7411e-19)
(1.02123 0.0110768 0)
(1.02041 0.0113354 -2.03038e-19)
(1.01593 0.00794053 5.09364e-19)
(1.01656 0.010747 -2.54209e-19)
(1.01728 0.0101018 1.87139e-19)
(0.0359652 1.32992 0)
(0.0432646 1.3857 0)
(0.0525566 1.33016 0)
(0.0603566 1.27627 0)
(0.0757847 1.40323 -5.01864e-20)
(0.0861406 1.36896 2.21573e-20)
(0.11424 1.54868 -1.43846e-20)
(0.107825 1.39148 -5.02513e-21)
(0.0411226 1.48166 2.23297e-20)
(0.0448266 1.47531 -1.7191e-20)
(0.0688268 1.39054 -1.09426e-20)
(0.0613079 1.39127 4.72475e-20)
(0.0559974 1.36824 7.06786e-21)
(0.0463445 1.39247 4.21622e-21)
(0.107619 2.35869 -1.48774e-19)
(0.0962912 2.40768 0)
(0.169387 2.03261 1.08474e-19)
(0.114582 1.70269 3.96952e-20)
(0.234665 2.03066 -8.96772e-20)
(0.199081 2.42094 0)
(0.261823 2.37085 -6.05827e-19)
(0.301956 2.36855 4.27898e-19)
(0.22845 1.99013 -2.49911e-19)
(0.15488 2.14873 1.69542e-19)
(0.141444 2.25507 0)
(0.0190046 1.8772 1.04161e-20)
(0.00118428 2.38351 -2.66372e-20)
(0.00660652 2.14142 0)
(0.0119498 2.44766 -1.37102e-20)
(0.0295775 2.29013 6.6079e-21)
(0.0185093 1.42973 -8.36951e-21)
(0.0150203 1.41135 1.40263e-19)
(0.0138462 1.41965 -4.61007e-20)
(0.0234332 1.42549 -3.92393e-20)
(0.0276203 1.45392 0)
(0.00926015 1.40322 0)
(0.00239937 1.30865 -6.15924e-20)
(0.00403579 1.39747 1.77923e-20)
(0.010465 1.3953 0)
(0.0115041 1.29989 -4.65012e-20)
(0.0217396 1.2148 9.39889e-20)
(1.04085 0.0121457 0)
(1.04709 0.00843189 -6.78066e-20)
(1.03893 0.0227527 -4.8909e-19)
(1.04862 0.021401 0)
(1.05246 0.0211891 0)
(1.03655 0.0124223 -6.80798e-21)
(1.03123 0.0122777 7.86201e-19)
(1.03176 0.0173244 9.5323e-19)
(1.02565 0.0212733 0)
(1.02262 0.0218225 0)
(1.03538 0.0263045 4.87961e-19)
(1.02604 0.0280756 0)
(1.02406 0.0277884 0)
(-0.018566 2.02312 0)
(-0.00163868 1.66249 -4.42423e-21)
(-0.00574898 1.76634 -3.2023e-20)
(-0.00373236 1.40392 0)
(-0.00752222 1.56778 -2.37404e-20)
(-0.0116882 1.48033 1.44263e-20)
(-0.0096563 1.42007 0)
(0.387923 1.63603 0)
(0.375683 1.30965 -7.44849e-20)
(0.300313 1.33965 0)
(0.427181 1.30832 9.90442e-21)
(0.478471 1.47311 0)
(0.458655 1.41731 2.39657e-20)
(1.03606 2.6711 -1.54141e-20)
(0.968315 2.39965 -9.16496e-19)
(0.921715 2.18887 1.02628e-18)
(0.852011 2.36881 2.4243e-19)
(0.847338 2.48013 0)
(0.917021 2.47616 0)
(0.931436 2.36481 0)
(0.910395 2.35454 -9.46823e-19)
(0.685827 2.44325 -3.95473e-19)
(0.799199 2.43261 -9.80008e-20)
(0.809458 2.4067 7.44164e-20)
(0.695128 2.38743 0)
(0.80047 2.38274 0)
(0.758477 2.39638 -3.69046e-19)
(0.766732 2.46991 0)
(0.636991 1.09439 0)
(0.479754 0.892817 -5.20748e-19)
(0.573328 0.940781 -3.29061e-20)
(0.518607 1.02802 0)
(0.519104 0.968852 7.7896e-19)
(0.806374 0.888096 -1.29135e-19)
(0.814055 1.02347 0)
(0.789642 0.990417 1.8387e-19)
(0.674309 1.03462 0)
(0.675222 0.936425 0)
(1.16237 2.74784 -2.31536e-19)
(1.13979 2.81124 -9.92252e-20)
(0.927434 2.32374 1.04218e-19)
(0.895394 2.30362 -8.42338e-20)
(1.12819 2.72088 0)
(1.0822 2.69022 1.01325e-19)
(1.08769 2.47417 -3.143e-19)
(0.982332 2.22792 -3.01808e-20)
(0.490599 1.32369 0)
(0.507025 1.05632 -1.25004e-19)
(0.579768 1.16789 0)
(0.848967 0.251476 0)
(0.75606 0.20028 0)
(0.662673 0.154802 0)
(0.83969 0.252631 -6.3293e-19)
(0.725237 0.245774 3.7411e-19)
(0.921962 0.0914664 -4.11989e-19)
(0.924394 0.133339 0)
(0.912722 0.142294 1.78033e-19)
(0.848689 0.11861 7.11805e-19)
(0.812735 0.0793414 -4.46054e-19)
(1.15264 3.34425 -7.13402e-19)
(1.2022 3.26389 0)
(1.14999 3.37355 -1.4839e-18)
(0.638732 3.53546 1.25786e-18)
(0.858919 3.10508 6.85899e-20)
(0.524816 0.785078 6.08366e-19)
(0.421612 0.78276 0)
(0.298001 0.346702 -1.47483e-19)
(0.483113 0.647334 8.53883e-19)
(0.574407 0.330722 -1.89966e-19)
(0.519156 0.460477 2.27536e-19)
(0.676349 0.516063 4.82547e-19)
(0.722324 0.55801 0)
(0.671707 0.569929 0)
(0.63976 0.526202 0)
(1.01285 0.619957 8.66238e-20)
(0.926217 0.561499 -5.08903e-19)
(0.952193 0.592628 3.82622e-19)
(0.981078 0.532717 -3.94642e-19)
(1.09014 0.499347 0)
(1.09875 0.590983 -9.55832e-20)
(0.857164 0.418912 -8.28211e-19)
(0.854728 0.406411 -1.02718e-18)
(0.786414 0.401614 6.28763e-19)
(0.79542 0.390064 -6.39473e-19)
(0.842858 0.345429 -5.19112e-19)
(0.789035 0.341733 6.3455e-19)
(1.02677 0.00620389 -4.95009e-19)
(1.02647 0.00643251 1.00744e-18)
(1.02956 0.000327474 6.28155e-19)
(1.03375 0.00122945 -7.56594e-19)
(1.03394 0.00936351 0)
(1.03022 0.010051 -1.23095e-18)
(0.0642458 1.63853 1.84756e-20)
(0.0528001 1.59077 0)
(0.091301 1.6878 1.24187e-19)
(0.0985022 1.66881 -1.09969e-19)
(0.0926832 1.54971 2.57202e-20)
(0.0918988 1.55143 0)
(0.0124927 1.69559 0)
(-0.00361397 1.51154 1.07666e-20)
(-0.0019765 1.45791 -9.6821e-21)
(-0.00878825 1.56463 5.27048e-21)
(0.00189787 1.88715 1.57576e-20)
(-0.0102234 1.9406 -3.91908e-21)
(0.496711 1.35268 -2.79468e-19)
(0.490379 1.35217 3.07235e-19)
(0.454973 1.30385 -3.30259e-20)
(0.43684 1.28097 7.85349e-21)
(0.6434 1.31096 0)
(0.557637 1.40164 1.04872e-19)
(0.574033 1.40854 -1.02099e-19)
(0.469258 1.29643 3.22473e-20)
(0.524836 1.24314 0)
(0.576173 1.20531 0)
(0.652834 2.40302 5.80943e-19)
(0.668542 2.44515 1.25867e-18)
(0.712918 2.45593 -8.67368e-19)
(0.608923 2.42983 -2.01721e-19)
(0.559393 2.51946 2.83804e-19)
(0.508739 2.4946 -7.56733e-19)
(0.977786 2.37134 -5.74452e-19)
(1.0114 2.38325 0)
(0.92538 2.16693 -6.58615e-19)
(1.05338 2.66924 0)
(1.05573 2.65584 0)
(0.593337 2.25093 -1.36044e-19)
(1.03403 3.15025 1.21194e-19)
(0.905186 3.02096 -2.31776e-20)
(0.257311 0.824659 0)
(0.280557 0.66391 -3.18084e-19)
(0.454097 0.625773 -3.21329e-19)
(0.373437 1.99431 0)
(0.459175 2.77648 -4.77491e-20)
(0.411677 2.53878 0)
(0.72507 0.669329 -8.33319e-19)
(0.808831 0.691257 1.11056e-18)
(0.828343 0.631919 -1.09696e-18)
(0.701531 0.634143 -1.06396e-19)
(0.755794 0.594071 -4.3508e-19)
(0.998714 2.74789 -9.218e-20)
(1.04095 2.81102 -1.7046e-19)
(0.62793 2.1105 7.1746e-19)
(0.579656 1.68011 -5.10583e-19)
(0.691319 1.88252 -4.13217e-19)
(0.985221 2.43218 -1.13042e-19)
(0.992785 2.42517 3.00954e-19)
(0.64483 1.81383 2.87183e-20)
(0.437361 1.30207 1.46338e-19)
)
;

boundaryField
{
    wall-4
    {
        type            noSlip;
    }
    velocity-inlet-5
    {
        type            fixedValue;
        value           uniform (1 0 0);
    }
    velocity-inlet-6
    {
        type            fixedValue;
        value           uniform (0 3 0);
    }
    pressure-outlet-7
    {
        type            zeroGradient;
    }
    wall-8
    {
        type            noSlip;
    }
    frontAndBackPlanes
    {
        type            empty;
    }
}


// ************************************************************************* //
