/*--------------------------------*- C++ -*----------------------------------*\
| =========                 |                                                 |
| \\      /  F ield         | OpenFOAM: The Open Source CFD Toolbox           |
|  \\    /   O peration     | Version:  2206                                  |
|   \\  /    A nd           | Website:  www.openfoam.com                      |
|    \\/     M anipulation  |                                                 |
\*---------------------------------------------------------------------------*/
FoamFile
{
    version     2.0;
    format      ascii;
    arch        "LSB;label=32;scalar=64";
    class       volScalarField;
    location    "87";
    object      p;
}
// * * * * * * * * * * * * * * * * * * * * * * * * * * * * * * * * * * * * * //

dimensions      [0 2 -2 0 0 0 0];

internalField   nonuniform List<scalar> 
918
(
0.558694
1.1706
0.000737508
0.558164
-0.0127394
1.13756
-0.513882
0.650946
0.538904
-0.106188
-0.057108
0.540877
0.998348
0.762074
-1.12446
-0.014273
0.652452
-0.382347
0.538038
-0.0738456
0.673217
0.545434
0.548457
0.539034
0.598129
0.734403
0.879283
0.0311409
0.012428
0.00730726
-0.0122302
-0.0391593
-0.0340468
1.02122
1.07228
1.09499
0.506608
0.334894
-0.379414
-0.453581
-0.439216
-0.538611
0.653137
0.654914
-0.217467
0.652325
0.649961
0.525902
0.538275
0.53919
0.540195
0.539187
0.540564
0.402607
-0.107345
-0.138612
-0.0870155
-0.0801823
0.0484605
-0.0557157
-0.0566389
-0.0563709
-0.0581897
0.455649
0.535366
0.531975
0.545097
0.554359
1.11015
1.0821
1.10823
1.02184
1.03833
0.976358
0.94893
0.784169
0.806173
0.745577
0.732283
-1.5524
-2.49698
-0.538348
-0.289884
-0.0108107
-0.012575
-0.0073047
0.649791
0.651012
0.652678
0.654394
1.07854
-0.379436
-0.48234
0.538184
0.536996
0.545298
0.546001
0.542023
0.541112
-0.065021
-0.0623024
-0.0605442
-0.0685795
-0.0655536
0.644823
0.651633
0.53956
0.53656
0.562135
0.58279
0.572529
0.278129
0.608926
0.625057
0.570094
0.728645
0.721961
0.731228
0.852954
0.815797
0.91636
0.939719
0.0188863
-0.000430561
-0.0185347
-0.0215696
-0.0208342
0.502434
0.494965
0.522881
0.510049
0.512561
0.252341
0.119881
0.419377
0.443878
-0.299137
-0.36768
-0.431504
-0.461362
-0.569052
0.615231
0.655651
0.65298
-0.226622
-0.154704
-0.289665
-0.0813035
-0.144722
0.516145
0.523175
0.518165
0.533743
0.528204
0.53017
0.542554
0.539622
0.541183
0.464644
0.587994
0.328906
0.293167
-0.243418
-0.154124
-0.242246
-0.0697886
-0.067181
0.062914
0.0888773
0.0348895
0.0229046
-0.0632494
-0.0587185
-0.0606239
-0.058025
-0.0593351
0.448351
0.437057
0.468373
0.475952
0.522101
0.523522
0.527898
0.525991
0.899881
0.9223
0.929667
0.903406
-3.47928
-6.24757
0.0320545
0.167385
-0.00713117
-0.0100286
0.00178864
-0.00639894
-0.000467533
-0.00229133
-0.0129541
-0.0143129
-0.00893316
-0.00788601
0.644881
0.645505
1.00162
1.00978
0.976274
0.929443
0.526472
0.528506
0.533975
0.529877
-0.0601095
-0.0609144
-0.0601679
0.649657
0.647802
0.649055
0.239363
0.148981
0.329479
0.358838
0.638533
0.627867
0.636865
0.630619
0.665078
0.947168
0.965248
0.963552
0.971737
1.01579
1.0322
0.997521
0.481811
0.49183
0.486758
0.525689
0.523611
0.524447
0.520922
0.521902
0.520072
-0.0298029
-0.407619
0.490995
0.50692
0.493408
0.494829
0.695474
0.774255
0.654029
0.654782
0.654434
-0.0111747
-0.0697564
0.248127
0.213638
0.387518
0.424153
0.402964
0.871097
0.831145
0.881371
0.854821
0.816227
0.842633
-0.359319
-1.85086
-0.974298
0.513554
0.329995
0.41636
0.00446051
-0.0124572
-0.00773369
1.00251
1.07366
0.643736
0.819265
0.821234
0.702065
0.731699
0.789054
0.712569
0.748844
0.78521
0.765751
0.57076
0.504215
0.521159
0.843052
0.898476
0.118224
0.0554824
0.0117781
0.108194
0.166122
0.139848
1.03336
0.95163
1.02126
0.536323
0.537049
-0.00835365
-0.0234307
0.541317
0.541375
-0.0143556
-0.00422492
0.399311
-0.83189
0.0954794
0.529937
0.519753
0.536922
-0.0917585
0.353962
-0.0561546
0.0444744
-0.0139203
0.531257
0.466817
0.425799
-0.00319102
-0.0239408
-0.0641123
-0.21261
0.533993
0.532297
0.536389
0.537324
0.538009
-0.0224142
-0.0185697
-0.0123069
-0.0582221
-0.0491831
-0.0646759
0.500777
0.519912
-0.171408
0.53654
0.53868
0.538496
0.531787
0.537403
0.535665
-0.0146068
-0.0186335
-0.0213065
0.218881
0.352303
0.635366
0.719386
0.608813
0.386844
0.153892
0.540835
0.602849
0.510141
0.661696
0.651012
0.647876
0.160865
0.00995721
0.17044
0.112324
0.527794
0.526537
0.518002
0.514955
0.53179
0.5299
0.534467
0.531499
0.534452
0.535827
-0.04839
-0.0742833
-0.084163
-0.150951
0.308706
0.569388
0.253885
0.283031
0.139427
-0.0516095
-0.0533116
-0.053569
-0.0601662
-0.00208484
-0.0297259
0.0387885
0.0384062
0.00894126
-0.0165661
-0.0129341
-0.0246314
-0.0176626
0.52453
0.524428
0.529302
0.537865
0.476509
0.480291
0.444976
0.465862
0.450996
0.389378
0.425074
0.400136
-0.00878486
-0.00144011
-0.00525754
-0.022585
-0.019174
-0.0396859
-0.0365874
-0.0316389
-0.0279469
-0.0347896
-0.0573136
-0.0622515
-0.170239
-0.286456
0.988345
0.907383
0.140583
0.52313
0.529596
0.526352
0.531297
0.534427
0.53522
0.53292
0.529463
0.520233
0.521923
0.518429
0.51935
-0.101834
-0.244463
-0.0727279
-0.148764
0.147732
0.629626
0.364198
0.298981
0.294533
0.524356
0.904592
0.685775
0.650981
0.637516
-0.346781
0.0380012
-0.284871
0.326881
0.158445
0.63759
0.685708
0.705655
0.654683
0.608462
-0.0963757
0.557232
-0.0771572
-0.0240562
0.178621
0.0525021
0.639102
0.639919
0.64597
0.639864
0.648807
0.641858
0.621733
0.623832
0.639685
0.646666
0.479836
0.249526
0.199661
0.161182
0.644772
0.513653
0.56222
0.489171
0.523039
0.525632
0.524303
0.505613
0.513209
0.508724
0.515301
0.518859
0.527496
0.527983
0.523224
0.525355
-0.0550851
-0.0609224
-0.0250978
-0.13494
-0.127718
-0.190205
-0.0591446
0.0760089
0.037354
0.23788
0.341037
0.0529071
-0.0562603
-0.0291658
0.014471
0.180967
0.209785
0.0734906
0.159928
0.152759
0.133159
0.236128
0.238866
-0.0329814
-0.0337048
-0.0378881
-0.0415166
0.0157687
0.08767
0.0967835
-0.0136005
-0.0173856
-0.0517842
-0.0549892
-0.0237053
-0.0286383
-0.0243324
0.0037037
-0.0570886
-0.0248888
-0.011325
-0.0136287
-0.0121946
-0.017394
0.519187
0.520976
0.521173
0.530232
0.54234
0.557038
0.522638
0.498784
0.489539
0.492544
0.465452
0.47578
0.471617
0.485255
0.506556
0.515075
0.513376
0.516185
0.498559
0.500264
0.48675
0.490433
0.465484
0.44603
0.43395
-0.0472299
-0.00893603
-0.0174709
-0.042111
-0.0125023
-0.0242102
-0.0166405
0.00270033
-0.0144286
-0.0149459
-0.0250145
-0.0328465
-0.0325922
-0.071913
0.0154256
-0.184678
-0.21926
-0.293068
0.890893
1.01512
0.80917
0.582083
0.603528
0.846946
0.930579
0.541811
0.734834
0.757616
0.589712
0.857064
0.527985
0.527578
0.525177
0.524653
0.525875
-0.00546151
0.101982
0.0976387
0.163064
0.279516
0.390256
0.324148
0.198542
0.327763
0.329899
0.621901
0.633791
0.590284
0.614477
0.615444
0.426032
0.501687
0.553368
0.514493
0.567059
0.58889
0.542494
0.576027
0.524749
0.479922
0.476018
0.425731
0.445237
0.420679
0.40388
0.51859
0.495178
0.506124
0.496257
0.518414
0.544615
0.541688
0.56434
0.579384
0.499049
0.454145
0.463419
0.493638
0.455261
0.470744
0.486547
0.237061
0.139935
0.222662
-0.0612809
0.0063469
-0.00504948
-0.0543436
-0.00128392
0.282492
-0.406435
-0.383799
-1.00808
0.50802
0.945449
0.55904
0.539737
0.648746
0.638099
0.643143
0.659201
0.651912
0.633189
0.640896
0.646006
0.589604
0.610657
0.625172
0.622174
0.524808
0.379593
0.379851
0.326798
0.196886
0.237379
0.432588
0.357168
0.282369
0.282418
0.457136
0.343143
0.414015
0.446341
0.377244
0.331881
0.535672
0.601799
0.594868
0.568734
0.477508
0.488818
0.513988
0.547693
0.570812
0.605372
0.514714
0.520677
0.521905
0.519375
0.516637
0.519738
0.519995
0.522581
0.523195
0.526216
0.525286
-0.0524057
-0.0391345
-0.049691
-0.0611281
-0.0174531
-0.019972
0.0233554
0.0110508
-0.0162891
-0.0117792
-0.0327364
-0.0368029
-0.0339558
-0.0266739
0.103098
0.11554
0.100027
0.0604342
0.25194
0.381184
0.455771
0.330496
0.225376
0.24936
0.267508
-0.0138011
0.0107726
-0.00172786
0.038096
0.0307336
-0.0436229
-0.0481958
-0.0451292
-0.0351184
-0.0270501
-0.0478704
-0.0574303
-0.0465955
-0.0503234
-0.0540783
-0.0602601
0.501067
0.494557
0.496156
0.490115
0.488822
0.503011
0.50731
0.509313
0.514831
0.517074
0.507157
0.512593
0.516529
-0.0186099
-0.0418809
-0.0446347
-0.0400039
-0.0397628
-0.0374564
-0.039599
0.126097
0.0577278
0.061128
0.0137145
-0.119813
-0.0615334
0.494775
0.493079
0.481253
0.723514
0.572802
0.493999
0.590949
0.696717
0.279342
0.475022
0.311005
0.889623
0.787122
0.933142
0.543884
0.249843
0.416876
0.455871
0.271888
0.349708
0.323987
0.213867
0.244142
0.28464
0.382032
0.269209
0.247255
0.00372654
0.194458
0.304576
0.286695
0.409722
0.469517
0.271447
0.190609
0.145429
0.606357
0.62564
0.638931
0.611323
0.634088
0.583051
0.574958
0.590394
0.598614
0.592172
-0.737062
-0.443218
-1.39127
-0.718788
-0.260992
0.538406
0.51446
0.772255
0.642731
0.668279
0.652785
0.615969
0.587648
0.613506
0.633243
0.338163
0.449042
0.423836
0.430573
0.333433
0.262961
0.562778
0.560565
0.593709
0.617877
0.58917
0.619864
0.512516
0.512236
0.511701
0.507942
0.506208
0.508546
0.0584559
0.0257954
0.067358
0.0497744
0.0275072
0.0156327
-0.0205671
-0.0310064
-0.0373758
-0.0356648
-0.0207977
-0.0170336
0.176182
0.11248
0.032694
0.0612677
-2.55508e-05
-0.0685232
-0.0883608
0.0185562
0.114945
0.105032
0.4076
0.65595
0.476216
0.643543
0.486815
0.542438
0.469348
0.460163
0.484468
0.38225
0.462857
0.260708
-0.248754
-0.158658
0.798169
0.807965
0.582104
0.411316
0.177299
0.350398
0.539248
0.467963
0.502779
0.57123
0.557544
0.037904
0.0923232
0.388812
0.615559
0.24571
0.236371
0.22983
0.417193
0.333729
)
;

boundaryField
{
    wall-4
    {
        type            zeroGradient;
    }
    velocity-inlet-5
    {
        type            zeroGradient;
    }
    velocity-inlet-6
    {
        type            zeroGradient;
    }
    pressure-outlet-7
    {
        type            fixedValue;
        value           uniform 0;
    }
    wall-8
    {
        type            zeroGradient;
    }
    frontAndBackPlanes
    {
        type            empty;
    }
}


// ************************************************************************* //
