/*--------------------------------*- C++ -*----------------------------------*\
| =========                 |                                                 |
| \\      /  F ield         | OpenFOAM: The Open Source CFD Toolbox           |
|  \\    /   O peration     | Version:  2206                                  |
|   \\  /    A nd           | Website:  www.openfoam.com                      |
|    \\/     M anipulation  |                                                 |
\*---------------------------------------------------------------------------*/
FoamFile
{
    version     2.0;
    format      ascii;
    arch        "LSB;label=32;scalar=64";
    class       surfaceScalarField;
    location    "87";
    object      phi;
}
// * * * * * * * * * * * * * * * * * * * * * * * * * * * * * * * * * * * * * //

dimensions      [0 3 -1 0 0 0 0];

oriented        oriented;

internalField   nonuniform List<scalar> 
1300
(
3.75095
5.62643
-3.28885
3.75095
-7.75005
5.62643
-4.40943
4.40943
-0.335023
0.335023
1.87638
1.87457
-2.69305
2.69305
-2.02433
2.02433
-2.52166
2.52166
-5.24638
5.24638
-5.06892
5.06892
4.64926
-4.64926
-6.31478
6.31478
-0.936828
0.936828
-3.69161
3.69161
3.16958
-3.16958
-1.93953
1.93953
0.0999344
-0.0999344
-0.553467
4.30442
3.19749
3.19749
-2.00703
2.00703
-4.86966
4.86966
6.2179
-6.2179
5.26623
-5.26623
-1.97738
-2.48962
1.80133
-11.4638
-5.94872
-5.94872
-8.44037
8.44037
-2.81394
2.81249
2.94646
-2.94646
-1.76544
1.76544
-4.37383
-0.035597
-4.37383
4.3775
0.0319285
4.3775
-0.44814
0.113117
-0.44814
4.01683
-4.01683
0.226264
0.108759
0.226264
3.06541
-3.06541
-1.87712
3.75351
1.87383
-1.8719
6.17632
-1.87905
3.75362
-6.01326
6.01326
-2.9384
0.245358
-2.9384
2.48038
0.212669
2.48038
-6.85193
6.85193
-2.08339
0.0590566
-2.08339
1.97099
0.0533373
1.97099
2.88219
-2.88219
-2.62792
0.106254
-2.62792
2.39263
0.12903
2.39263
0.353508
5.27292
-5.97994
8.79242
-5.27292
0.0265411
5.2083
0.0380838
5.2083
-5.10605
0.037128
-5.10605
5.01387
0.0550501
5.01387
4.7323
-0.0830483
4.7323
-4.769
0.119741
-4.769
-3.36659
-4.05766
-6.46629
0.151507
-6.46629
-1.02598
0.0891479
-1.02598
0.824788
0.112041
0.824788
-3.68852
3.68852
-4.11437
0.422762
-4.11437
3.12396
0.045616
3.12396
1.86849
1.88247
5.61944
-5.61944
2.44986
-1.89814
-0.0413986
-1.89814
-2.02528
-3.24095
2.02528
-0.0857447
-0.133474
0.233408
-0.133474
3.15945
0.0380315
3.15945
2.23569
0.15694
-2.23569
0.228663
3.28111
-3.28111
1.33478
0.672246
1.33478
-5.56416
5.56416
4.95701
0.0568633
-4.95701
0.0873448
6.1563
0.0615967
6.1563
-6.19956
-0.0183396
-6.19956
2.5247
-5.01432
-2.65344
6.1316
0.183176
-6.1316
0.182885
2.91845
0.02801
2.91845
-2.91795
2.91795
-2.98487
0.03841
-2.98487
-2.16392
0.398473
-2.16392
1.46755
0.297891
1.46755
-4.27711
-0.0967235
-4.27711
-4.26571
0.151342
4.26571
0.111789
1.13113
-1.13113
-0.582707
0.134567
-0.582707
-4.1422
-0.134906
4.1422
-0.12537
-3.90399
-0.112844
-3.90399
-3.02464
0.039767
3.02464
0.0407682
3.11291
0.0465409
-3.11291
0.0475085
-1.87081
3.75328
-1.88014
3.75397
-5.63407
-0.379189
-5.63407
6.32417
-0.310906
6.32417
3.33215
0.359457
-3.33215
0.393747
2.30873
0.171648
2.30873
-6.81278
-0.039143
-6.81278
6.83821
0.0137124
6.83821
2.1778
0.130925
-2.1778
0.0944162
1.92862
0.0423743
1.92862
2.90292
-0.0207285
2.90292
-2.87603
-0.00615353
-2.87603
2.79014
-2.79014
2.71519
0.0749528
-2.71519
0.0872687
-11.1329
11.1146
-0.0350578
-11.0979
5.17324
5.17324
4.15721
0.575096
4.15721
-4.98879
0.219795
-4.98879
2.69245
-5.34589
3.10642
-6.47301
4.66002
-16.1238
4.28369
-8.34134
6.70644
-6.70644
6.59541
0.111031
-6.59541
0.129122
-1.1446
0.118627
-1.1446
-3.08793
-0.600581
-3.08793
4.32896
-0.640445
4.32896
-3.0279
3.0279
-3.07737
0.0494696
3.07737
0.0465959
1.89718
0.0314343
-1.89718
-0.000950713
0.158038
0.0682261
-0.158038
0.0245641
3.49673
-0.215613
3.49673
-3.08148
-0.199632
-3.08148
-1.24447
0.0998636
1.24447
0.0903179
-5.81295
0.248788
-5.81295
-11.1909
0.0930042
-11.1528
-6.10655
-6.10655
2.33382
11.1262
-2.89386
0.0178253
2.89386
0.0245912
2.97443
0.0534685
-2.97443
0.0564729
-2.85711
0.066966
2.85711
0.0608481
-2.53839
0.374475
-2.53839
-1.06885
1.06885
-1.23216
0.16331
1.23216
0.235395
1.40524
-0.274106
1.40524
0.707008
0.11778
-0.707008
0.124301
-3.80097
-0.103013
-3.80097
6.55985
-0.235687
6.55985
-2.96552
-0.115956
2.96552
-0.0626089
-0.0333506
11.1479
-5.13989
0.0338417
5.13989
-11.2095
11.2434
-3.20828
0.669887
3.20828
0.948929
5.28378
0.280385
-5.28378
0.294987
6.78966
0.0485575
-6.78966
0.0832179
-2.59571
-0.492223
-2.59571
-5.05315
-0.580922
5.05315
-0.724191
-11.4737
-0.205191
11.6789
-11.4187
6.01814
0.13816
-6.01814
11.3815
-1.02921
-0.101922
1.02921
0.0396348
1.73361
-0.32837
1.73361
3.69595
-0.199225
-3.69595
-0.105025
-6.71477
-0.09801
6.71477
-0.154919
-2.15081
-0.444905
2.15081
-0.417194
-4.26714
4.30517
1.90919
-2.37512
-2.6392
-5.61607
1.85184
1.90144
4.3017
-10.1229
-6.00088
-9.94006
7.26091
-6.96592
-9.23303
9.14998
7.91467
-8.02752
-5.78465
5.83125
6.483
-6.44223
1.87885
1.87466
8.03539
-7.79003
-15.5726
15.1934
7.57761
-7.51855
15.726
-15.7652
-17.8078
17.8563
-5.70728
5.81354
-6.74095
6.7348
-6.97738
6.91477
-2.831
-3.64202
13.0834
-12.9319
8.63685
-8.67825
-8.6366
9.05936
3.38261
0.922559
3.42915
-1.88213
3.76097
-1.87149
3.78068
2.75283
-5.58383
2.59306
-5.23226
4.39629
4.24057
-4.31054
-1.30553
-5.92501
5.95302
-5.81397
5.87482
9.16408
-9.19968
-1.88518
3.75984
-1.86879
3.77023
-3.42499
-2.35966
3.37937
0.92233
8.04966
5.03378
-8.23283
-1.70723
-8.05093
7.8517
-8.2358
8.03617
-0.432354
5.81871
-5.38636
4.43731
-1.56542
7.38414
5.69549
5.91528
5.86612
-5.58573
1.0998
-6.48616
-6.39882
-2.19916
2.33372
2.09551
-1.98675
6.16398
1.7507
6.03861
-5.77258
-2.25494
-5.87559
3.82038
2.01087
3.86985
4.07857
2.40443
4.11833
3.03039
-3.03602
0.00562612
-3.05672
6.08711
0.723823
-5.41638
-4.49405
4.98244
3.05295
5.19511
-5.56474
-2.22529
-5.17099
-9.52098
-6.0516
-10.1019
10.063
5.13042
9.75207
-11.9314
11.7765
4.81168
2.76593
4.86502
-4.95806
-2.56049
-4.86364
11.6296
-2.64539
-8.98422
-10.2957
-7.51209
10.282
5.44406
10.9381
6.91827
11.0213
4.41667
7.21295
-9.86073
2.34863
-3.86801
-1.83928
-3.78074
3.67596
2.13758
3.80499
-4.21769
-2.52326
-4.19987
-4.296
-2.68138
4.31673
2.41807
-4.41856
-3.81725
4.53451
2.38026
4.03907
-10.0399
4.30227
-7.94429
-9.17521
-3.75672
-9.04609
3.55592
2.60746
-6.16338
-2.02791
8.5657
-4.32514
7.26018
-5.21219
-3.46606
-5.21314
-6.89977
-1.73682
-6.74843
-8.86187
8.36964
-9.15778
8.51733
12.4796
-5.63005
-6.84955
-3.96848
-2.47375
3.92097
-0.491824
-3.71045
3.71608
0.0505214
3.8312
4.75376
4.26194
-3.88491
-1.92907
-3.82843
3.82476
2.05006
3.89173
6.85555
2.30853
6.88748
-6.63257
-2.56711
-6.7293
9.02042
-8.62195
2.83104
-2.73118
5.40367
2.6325
-5.18805
-2.86287
6.20786
-3.22008
-2.98778
-12.2033
10.5222
1.68114
-4.8192
-0.381896
-0.48183
-5.4847
-3.74833
5.36496
0.550321
11.0725
7.3242
-5.51277
5.76156
6.16613
6.22299
-0.175824
5.7937
-5.12381
5.25764
-2.62201
-2.63563
5.49114
-5.62604
-1.23816
-5.54532
4.30717
0.412563
1.40159
-1.16818
-1.74684
-0.452313
-1.62254
1.186
0.909512
1.25422
0.964433
1.36929
-2.9447
0.504342
2.44036
-1.98027
-1.48241
-3.85938
-1.13919
4.99857
5.74839
2.10332
-5.64336
-0.23223
2.50542
-2.39338
-0.811971
-3.04741
2.23745
-3.04942
-3.66342
-2.10153
5.76495
-3.36978
-0.458654
3.31631
0.553538
-3.82731
-2.0977
3.7889
0.329434
-3.12851
6.19106
-3.06255
-5.05758
2.52743
3.55968
4.5383
-4.78957
2.44784
2.34173
-1.22989
4.24916
0.945952
4.4208
-6.95618
4.73089
5.81591
3.24345
-6.17537
1.00438
-5.9518
8.55181
-7.37952
-1.17229
4.16972
4.38209
7.04388
5.43572
-5.66101
12.7049
-1.20961
-6.16991
7.16141
-3.91797
4.85751
-8.77547
-10.2932
4.12332
-9.1115
10.8853
-1.77384
-3.61631
-8.31506
12.7278
-1.20132
-11.5265
8.55075
-4.29165
-4.41218
8.70383
-6.93705
6.97267
-1.99154
-4.98112
-10.0811
-5.68407
10.1791
1.59733
-9.94358
12.2922
-2.73063
4.12395
0.741071
4.16632
3.30578
-5.4914
2.18562
3.63127
-5.62281
2.07873
-7.57013
-6.71878
12.0502
-5.33145
-10.4755
-9.49725
-0.978251
2.53558
9.75663
-9.45385
7.41101
2.04284
3.30065
0.591081
-3.3756
-0.40514
0.233963
4.513
-4.74696
4.03895
4.19589
3.26284
1.25016
3.84571
2.1073
-3.87031
-0.329563
-4.16436
1.48298
-1.74629
-3.69513
5.17811
-4.06755
0.372417
-2.74407
-3.49753
6.2416
-4.58334
3.03481
3.15625
5.08487
-4.91367
1.41614
-2.39275
-2.52092
2.65141
-4.3977
1.99508
3.18303
4.37534
0.558087
5.87569
6.17454
-8.48315
0.538865
11.2083
-9.50108
2.46092
8.56037
-9.87193
0.374683
-8.6714
0.998893
-5.32403
-5.16449
5.20741
-6.94423
-3.56807
6.22704
0.660436
-6.33883
-0.409596
-6.02373
-2.83813
-6.46864
-3.03734
-6.12044
-8.69836
-1.64862
-7.04973
6.72102
-6.66941
-3.43249
7.3936
1.12373
-7.39717
7.29525
-7.47558
7.14721
0.0954804
3.6206
4.35742
1.88367
-2.39071
4.27437
-5.1283
7.43683
-8.73939
3.61108
4.21874
-6.78585
-4.52064
5.01082
4.0096
5.30871
8.86276
-10.3216
1.45879
-10.6232
11.957
-1.33372
-16.3731
5.74987
-7.51035
2.4325
0.398535
2.55113
0.541077
2.4987
-3.03978
-2.1901
-2.09978
-2.44323
-3.4645
5.90773
1.08232
-3.53246
2.45014
-3.56767
4.64999
-0.22171
-3.31075
5.26585
-2.76714
5.66438
-3.78938
1.875
3.44072
5.75398
-2.31326
4.39563
-1.76313
1.93174
-4.245
-1.53276
-2.95489
5.09247
-3.28671
3.65912
-0.34551
4.00463
-4.04583
0.825755
-0.782993
3.4129
3.64156
4.31677
-3.06661
2.91602
-4.67915
-1.32898
-4.12106
-0.938026
-0.252195
-3.68997
3.94216
5.96223
-6.21443
-5.22549
9.51019
-4.2847
7.67926
-5.3729
-2.30636
-4.24196
-4.37999
3.86748
1.92622
9.60548
0.207432
-5.58033
-4.91638
-3.96745
3.09556
2.16209
-1.69665
3.37779
2.17848
-0.776892
0.43205
0.822174
1.77214
-1.34009
0.321445
1.4507
-0.846738
1.68891
0.81651
-1.80669
0.184149
-1.35238
3.58983
1.08798
-1.99749
0.657397
0.97733
-3.59934
5.08218
-2.6959
-2.38628
6.05951
1.14335
-3.83925
4.40198
-3.98942
2.40524
-3.54442
-1.43401
-5.42343
-3.67273
-2.51417
4.96431
-3.39356
5.49688
1.30089
-5.26465
6.56553
-3.73203
1.6305
-3.03986
3.85637
-0.917962
-2.1219
2.90213
2.86282
-3.09115
0.0437412
-0.189019
2.40367
-2.59269
-0.645752
-2.62602
-4.57372
4.90316
-2.10509
4.55293
2.16929
-1.91734
6.47026
1.80863
-3.72596
-3.24895
-3.70761
-1.38423
3.15407
-0.569343
-4.2943
-5.55047
4.16338
0.257429
-7.07361
7.89117
-0.817565
-4.02066
-0.710229
4.87995
-6.09194
0.469129
-4.01321
3.87796
4.82391
5.08134
-11.306
-0.220446
-6.17562
1.11994
-7.29557
5.50203
-3.5274
7.65072
-10.3012
6.86873
-9.17749
6.47843
-0.817132
6.23703
-4.05141
2.74719
-8.43126
-6.83392
5.56305
-2.79713
6.30413
-3.17607
9.48019
-5.9067
5.34155
4.13864
-1.02495
-4.18819
-5.35112
4.32617
-0.00956074
4.15676
4.98039
-2.87309
4.65083
2.27013
-4.66288
-2.12757
-6.49633
1.83345
-3.34008
-1.92139
3.75483
3.16349
3.75457
1.23392
-3.34943
7.20349
-8.18174
-1.87204
-3.29244
5.34371
-1.01755
3.44637
-6.73882
-1.87765
4.77635
-0.776359
-3.99999
0.853703
-4.42177
1.67651
-6.09828
5.26772
-5.67731
2.22124
-9.73158
-5.17594
-5.1363
-2.25713
-5.21846
-7.55256
5.29544
-1.80269
5.49256
-8.4809
7.70454
-3.47605
8.77149
-5.41921
-1.04943
5.83641
1.3108
10.0823
0.228568
-4.74921
-1.92717
3.82872
-1.90155
1.16838
-3.4614
0.367319
2.49998
3.55953
-6.80715
0.0212976
-4.72791
-3.91097
7.92057
5.59922
11.5615
1.2399
9.09851
-1.17794
10.3384
4.13077
4.36616
-2.97791
4.4367
0.964249
4.57533
-0.927502
2.8025
1.62363
1.71278
0.680604
2.30395
1.33761
3.12971
0.0899262
-2.00986
4.6156
-8.58305
-0.964734
-8.00796
1.14202
5.70245
-4.56043
2.90973
-0.747647
1.00818
-0.145182
-1.15317
1.29835
-2.78082
-1.93006
-0.479362
-1.69657
2.35397
1.89326
-1.87461
-0.906209
0.350501
-4.02323
3.19392
-3.15018
-0.287361
6.27817
-2.81294
0.220247
-1.18243
-2.40577
-2.85808
2.67394
6.17637
0.29389
3.11382
5.19705
3.09935
0.226257
3.88003
-5.65387
-3.6901
-5.87431
-0.372282
4.50767
1.76422
7.99241
5.90286
4.88531
-1.85351
-10.0353
6.50238
-2.06568
5.16866
-1.16867
-4.92961
5.05645
2.38038
-5.71689
0.0395722
-4.89004
-6.95572
-0.509853
8.2144
-9.57244
8.52302
5.68488
1.36485
-4.39519
-0.741112
4.23188
0.134282
10.4727
-1.13031
-6.69226
7.82257
-4.57215
3.60741
0.727086
2.6507
2.02544
1.27779
-5.41447
-9.9749
-2.07508
-1.52426
-4.46136
0.537213
-2.43047
6.21152
-2.60411
3.90517
5.21846
6.22664
-2.12582
-4.08861
6.41052
-2.50535
3.72129
)
;

boundaryField
{
    wall-4
    {
        type            calculated;
        value           uniform 0;
    }
    velocity-inlet-5
    {
        type            calculated;
        value           uniform -3.75095;
    }
    velocity-inlet-6
    {
        type            calculated;
        value           uniform -5.62643;
    }
    pressure-outlet-7
    {
        type            calculated;
        value           nonuniform List<scalar> 8(3.28885 7.75005 4.467 9.66247 7.42425 5.17814 5.79887 8.94371);
    }
    wall-8
    {
        type            calculated;
        value           uniform 0;
    }
    frontAndBackPlanes
    {
        type            empty;
        value           nonuniform List<scalar> 0();
    }
}


// ************************************************************************* //
