/*--------------------------------*- C++ -*----------------------------------*\
| =========                 |                                                 |
| \\      /  F ield         | OpenFOAM: The Open Source CFD Toolbox           |
|  \\    /   O peration     | Version:  2206                                  |
|   \\  /    A nd           | Website:  www.openfoam.com                      |
|    \\/     M anipulation  |                                                 |
\*---------------------------------------------------------------------------*/
FoamFile
{
    version     2.0;
    format      ascii;
    arch        "LSB;label=32;scalar=64";
    class       volVectorField;
    location    "87";
    object      U;
}
// * * * * * * * * * * * * * * * * * * * * * * * * * * * * * * * * * * * * * //

dimensions      [0 1 -1 0 0 0 0];

internalField   nonuniform List<vector> 
918
(
(0.98516 -0.000508465 0)
(0.00501641 2.96625 0)
(0.0077641 0.881233 0)
(0.979705 0.00214497 0)
(-0.0123761 2.06089 3.7976e-20)
(-0.00705127 2.9488 -2.43421e-18)
(0.823176 1.16943 4.51487e-19)
(0.100866 0.0736234 -1.44866e-20)
(0.999909 -0.000275291 0)
(0.0665543 0.739637 0)
(0.0194188 0.47982 0)
(0.731766 0.00676742 0)
(0.0111414 2.93033 0)
(0.00289463 2.79527 0)
(-0.0179305 3.14558 7.82481e-19)
(-0.0212295 1.91834 1.26201e-20)
(0.286955 0.0610846 1.01975e-18)
(0.189553 1.14576 3.17286e-19)
(0.962709 0.00501442 0)
(0.00623055 0.420254 0)
(-0.00497911 0.0149273 -6.67264e-19)
(1.00197 -0.00497407 0)
(1.00023 -0.00978297 0)
(0.975741 -0.0064384 0)
(0.59811 0.0308797 0)
(0.0134547 2.64279 0)
(-0.0147776 2.90996 8.9311e-19)
(0.0132875 0.924317 0)
(-0.0211996 1.18423 0)
(0.0155914 0.908635 0)
(-0.0157701 2.58518 0)
(-0.00132286 2.11501 -3.03296e-20)
(-0.0113848 1.89738 0)
(-0.0205935 2.98761 -8.7393e-23)
(-0.0166796 3.00529 1.89164e-18)
(0.00210165 3.00017 0)
(0.871481 -0.00965985 0)
(0.400488 0.929104 1.81624e-19)
(0.810125 1.1828 -5.16803e-19)
(0.961118 1.02977 5.63015e-19)
(0.677484 1.27461 -1.05219e-19)
(0.677102 1.24841 6.02433e-19)
(0.12702 0.120033 1.4187e-20)
(0.138641 0.0592361 0)
(1.16771 0.566895 0)
(0.0917643 0.0880513 6.362e-20)
(0.0658715 0.0499009 -6.63284e-20)
(0.919932 -0.00745731 0)
(1.00027 0.000163 0)
(0.999909 0.000339951 0)
(1.00363 -0.00775677 0)
(1.00096 -0.000917277 0)
(1.00017 3.85028e-05 0)
(0.0726929 1.82631 -7.69543e-19)
(0.0327265 0.945393 0)
(0.0988476 0.81837 0)
(0.0152338 0.892336 0)
(0.0409798 0.658618 0)
(0.00719126 2.01629 0)
(0.00296481 0.771226 0)
(0.0191142 0.502059 0)
(-0.00180962 0.75906 0)
(0.0135787 0.457499 0)
(0.842225 -0.0156627 0)
(0.8424 0.0271917 0)
(0.757812 0.0037848 0)
(0.800879 0.0294714 0)
(0.700887 0.0188574 0)
(0.0146816 3.00041 9.01852e-19)
(0.011489 3.00812 0)
(0.00610016 3.00273 0)
(0.0135538 2.99739 1.02252e-23)
(0.00794905 2.95847 -1.34037e-18)
(0.0144916 2.98196 0)
(0.0108874 2.90359 0)
(0.0243658 2.93057 2.039e-24)
(0.00466305 2.82523 0)
(0.030771 2.91653 0)
(-0.00504557 2.7464 0)
(0.303425 3.53636 0)
(-0.131433 3.61663 0)
(0.13671 3.23528 -7.28162e-19)
(-0.0140743 2.97496 0)
(-0.0283559 1.98693 0)
(-0.00724181 2.16972 -1.24471e-20)
(-0.0151306 1.92686 7.41222e-21)
(0.337391 0.137617 -3.54048e-19)
(0.317551 0.0366725 -3.4412e-19)
(0.291518 0.14037 -1.0605e-18)
(0.251509 0.0666712 -6.89016e-19)
(0.229917 0.98633 0)
(0.273205 1.29577 -3.69328e-19)
(0.368032 1.23147 6.16438e-19)
(0.987422 0.00858036 0)
(0.941844 0.00579896 0)
(1.0003 0.000581802 0)
(1.00286 0.00931049 0)
(1.00301 0.00847486 -2.75286e-18)
(0.991906 0.00969443 2.07886e-18)
(-0.0143037 0.751715 0)
(0.0103468 0.42614 0)
(-0.0555019 1.00777 0)
(-0.0331998 0.803373 0)
(0.00115615 0.427046 0)
(-0.0952568 0.0830067 2.07177e-19)
(0.0380189 0.0575769 0)
(0.993556 -0.00836823 0)
(0.954476 -0.0065344 0)
(0.743554 0.0298468 0)
(0.678153 0.0284724 0)
(0.660667 0.0260882 0)
(0.973014 -0.00705251 0)
(0.585877 0.0739667 0)
(0.45775 -0.00196107 1.54512e-18)
(-0.0370608 2.86193 6.5224e-19)
(0.0408791 2.91044 0)
(0.0536473 2.88615 0)
(-0.00449841 2.70139 0)
(-0.0132666 2.98507 8.44614e-19)
(-0.0178269 2.89488 0)
(-0.0154759 2.98804 -2.62121e-18)
(-0.0132323 2.92515 8.97937e-19)
(-0.0373582 1.35346 0)
(-0.00812691 1.38486 0)
(-0.00748868 2.13427 5.95047e-22)
(-0.00649528 2.09567 0)
(-0.0234946 1.90535 0)
(0.938715 -0.0073507 0)
(0.857684 -0.00997007 0)
(0.862645 0.00552831 0)
(0.94968 -0.00778324 0)
(0.884148 -0.00820119 0)
(0.511478 1.12169 -2.29212e-19)
(0.56073 1.17269 0)
(0.365355 0.874058 3.37634e-20)
(0.308432 0.732913 0)
(0.923695 1.06552 -1.55532e-19)
(1.04333 0.875337 3.18007e-19)
(0.360951 1.35836 0)
(0.529379 1.33001 0)
(0.550592 1.26852 0)
(0.121621 0.184713 -3.03769e-19)
(0.160341 0.115036 0)
(0.172617 0.0998167 1.89583e-19)
(1.01396 0.929508 0)
(1.08841 0.782825 0)
(1.11381 0.72457 -2.5425e-19)
(1.14705 0.626401 0)
(1.19698 0.409217 5.79146e-20)
(0.957815 -0.00867985 0)
(0.962547 -0.0100192 0)
(0.901812 -0.0079885 0)
(0.984213 -0.0091391 0)
(0.974729 -0.00932085 0)
(0.937156 -0.00637509 0)
(1.00019 0.00234131 0)
(1.0009 0.00141804 0)
(0.999909 0.000856184 0)
(0.0355264 2.07189 4.26552e-19)
(0.118428 1.76941 0)
(0.0181881 2.18529 6.55068e-19)
(0.0459067 1.88056 -5.45401e-19)
(0.107045 1.15007 -2.59819e-19)
(0.0497398 1.02745 0)
(0.143734 0.98374 0)
(0.00903614 0.84556 0)
(0.0208042 0.592868 0)
(-0.000797311 2.24161 -7.70016e-22)
(0.0162171 2.02002 0)
(-0.00172104 2.24451 -2.51743e-20)
(0.00857576 2.02621 3.69997e-20)
(0.00550002 0.816458 0)
(0.00388863 0.791931 0)
(0.0162909 0.54083 0)
(-0.00753414 0.751512 0)
(0.00631125 0.439869 0)
(0.938922 0.00988162 0)
(0.85108 -0.014606 0)
(0.927955 0.000503373 0)
(0.842936 -0.0128706 0)
(0.809457 0.00095377 0)
(0.89929 0.0207814 0)
(0.875324 0.0243215 0)
(0.783223 0.00114018 0)
(0.00557324 3.06479 -8.38723e-21)
(0.0166405 3.05765 0)
(0.0145913 2.96901 0)
(0.00866618 2.87625 0)
(0.917718 3.94657 0)
(1.23022 3.28049 9.22255e-19)
(0.0683871 3.06753 0)
(-0.0299508 2.90115 0)
(-0.0119035 1.40806 0)
(-0.0341686 1.70181 0)
(-0.0206401 1.53979 0)
(-0.0315152 2.54472 -9.40599e-21)
(-0.0163317 2.2393 0)
(-0.0217876 2.38519 0)
(-0.000957323 1.95421 8.13676e-22)
(-0.00373909 2.24098 -1.182e-20)
(-0.00561526 2.20497 -7.72417e-21)
(-0.00889137 1.93883 0)
(0.38753 0.121226 5.41366e-19)
(0.367029 0.022687 -5.31225e-19)
(0.258215 1.58497 0)
(0.278362 0.759553 -3.16032e-19)
(0.176755 1.67231 -1.04708e-18)
(0.225557 1.22168 1.04934e-18)
(0.901913 0.00617102 0)
(0.967324 0.0112263 0)
(0.97451 0.0108399 0)
(0.923251 0.00631562 0)
(-0.010025 0.746566 0)
(-0.0118987 0.744574 0)
(0.00839564 0.425578 0)
(0.078975 0.0645523 5.86679e-19)
(0.0752163 0.0373489 -6.88578e-19)
(0.0392481 0.040783 0)
(1.10229 0.0872527 2.70792e-20)
(1.08427 0.0400734 0)
(1.01536 0.0404901 0)
(0.908776 -0.00496649 0)
(0.440357 0.103498 0)
(0.499782 0.0871893 -2.46979e-18)
(0.410697 0.0165579 9.24005e-19)
(0.00852657 2.98039 7.02703e-19)
(-0.0331335 2.86452 4.47557e-20)
(0.00362018 3.05034 -1.77746e-20)
(0.0201899 3.04326 6.3186e-19)
(-0.0149673 2.99658 2.95068e-20)
(-0.012958 2.94946 -1.18681e-22)
(-0.0172796 3.01191 -5.46394e-19)
(0.0149464 3.02357 3.96176e-19)
(0.00746145 3.03698 -6.27228e-19)
(0.934261 -0.0011438 0)
(0.939649 -0.00314631 0)
(0.846263 -0.00945616 0)
(0.956371 0.0121138 0)
(0.942365 0.0135659 0)
(0.881324 0.00559528 0)
(0.916278 0.0174838 0)
(0.925393 0.0154612 0)
(0.8372 0.00269139 0)
(0.713776 1.3983 3.66778e-20)
(0.747094 1.50681 0)
(0.17927 0.311173 7.06755e-20)
(0.230126 0.668573 5.67952e-19)
(0.261798 0.717661 -3.31904e-19)
(0.261159 0.515322 6.60942e-19)
(0.347427 0.813313 1.59824e-18)
(0.141434 0.23109 3.77089e-19)
(0.249281 0.142347 7.28899e-19)
(0.210962 0.132627 1.88743e-19)
(0.214068 0.0791417 3.57407e-19)
(1.18587 0.467393 6.74581e-20)
(1.20035 0.258875 6.23577e-20)
(0.0104026 2.23402 2.51599e-19)
(0.0403046 1.94893 0)
(0.971942 0.0296825 0)
(0.944146 0.0140864 0)
(0.870223 -0.0177152 0)
(0.0114591 3.07441 0)
(0.019734 2.94411 1.15414e-18)
(0.0163843 2.9564 0)
(0.00635197 2.85057 -1.14511e-18)
(0.00622958 3.0911 2.79961e-19)
(0.00703964 3.08223 0)
(0.779722 1.80773 -1.57095e-19)
(1.23797 2.48222 3.97585e-19)
(0.761644 1.94693 -1.22029e-18)
(0.0195242 2.98062 -6.03296e-19)
(0.0345477 2.99839 0)
(-0.0348807 2.87615 0)
(-0.0039094 2.22431 -1.32004e-20)
(-0.00320127 2.24533 1.99699e-20)
(0.00181241 1.9888 -7.2948e-21)
(0.278308 1.39476 1.0253e-18)
(0.240329 0.555664 -7.02912e-19)
(0.063678 1.99689 7.60586e-19)
(0.134926 1.88317 -9.08549e-19)
(0.180001 1.51268 9.53506e-20)
(0.0029799 3.11904 -1.73467e-18)
(0.0115136 3.11932 1.90581e-18)
(-0.00917282 2.98094 7.74085e-19)
(-0.00462516 2.97734 -7.27811e-19)
(-0.021053 2.88045 -7.88397e-19)
(0.00839303 3.10024 -2.08072e-18)
(0.00206826 3.10477 2.0826e-18)
(0.283516 0.695757 0)
(0.24926 0.684042 -1.18365e-18)
(0.0956788 0.224324 5.25457e-19)
(0.358614 0.940949 1.11618e-18)
(0.196489 0.277532 -1.72102e-18)
(1.19041 0.176501 6.24045e-20)
(1.20065 0.313893 0)
(1.1788 0.12376 -5.22503e-21)
(0.00169299 2.25297 -1.42901e-21)
(0.00509883 2.24416 0)
(0.0247196 1.98496 0)
(0.339749 1.30383 -3.67972e-19)
(0.375445 1.15276 -8.01071e-19)
(0.211252 0.380151 1.42912e-18)
(1.00588 -0.010822 0)
(1.00767 -0.0076299 5.07812e-19)
(-0.0316926 1.33462 0)
(-0.0442847 1.33625 0)
(1.00221 0.00351735 1.81306e-21)
(1.00366 0.00947432 1.03694e-18)
(-0.0199704 2.52977 1.19219e-20)
(-0.0249195 2.57238 0)
(0.0330861 3.17616 3.96291e-19)
(0.388351 3.48046 0)
(1.17938 0.6687 -5.57572e-20)
(1.01282 0.0131512 -2.13052e-21)
(1.02137 -0.0102605 0)
(1.0017 0.000137379 8.09279e-23)
(0.112962 1.37283 0)
(0.14319 2.56417 0)
(0.0358006 1.31524 0)
(0.000628 2.61601 2.49831e-20)
(-0.0206656 2.57342 -9.64974e-22)
(0.999594 0.0311422 2.51377e-21)
(1.06335 0.00494702 0)
(1.09802 0.0256125 0)
(-0.032383 1.7453 0)
(-0.0189021 2.57419 0)
(-0.00711621 1.32453 0)
(0.311764 1.48586 -1.67574e-19)
(1.01131 -0.00960634 0)
(1.0094 -0.0149137 0)
(1.00237 0.00076325 6.4902e-19)
(1.00547 -0.00479291 -7.62781e-19)
(1.00118 -0.000964021 0)
(-0.0198253 1.4754 0)
(-0.00819355 1.38881 0)
(-0.0117484 1.4333 0)
(-0.0117461 1.31105 0)
(-0.0258403 1.29844 0)
(-0.0151642 1.28338 0)
(1.03511 -0.00599873 0)
(1.01974 0.016088 -9.32345e-22)
(0.825368 1.27837 2.6269e-19)
(1.00223 0.000329764 -6.46426e-19)
(1.00406 0.00526722 7.56913e-19)
(1.00118 0.00208021 0)
(1.01269 0.0103977 6.43501e-19)
(1.00797 0.00832152 -7.79705e-19)
(1.00855 0.0146817 0)
(-0.0242288 2.60143 0)
(-0.0265426 2.58034 -2.25366e-20)
(-0.0236642 2.59474 1.59606e-20)
(1.23998 0.270383 5.7962e-19)
(1.16403 0.0879619 0)
(0.0384267 3.07836 -8.90915e-19)
(0.0647709 2.85696 -6.47614e-20)
(0.136529 3.19161 1.36286e-18)
(0.13165 3.21896 -1.89661e-19)
(0.131507 3.22893 0)
(0.0189439 3.13733 2.29804e-19)
(0.0731235 3.15953 8.78463e-19)
(0.0659284 3.18456 -4.33277e-19)
(0.0216825 3.12971 0)
(0.549549 0.281061 0)
(0.483342 0.299954 0)
(1.15195 0.705145 1.25158e-19)
(1.14472 0.826798 -1.06981e-19)
(1.20727 0.591593 0)
(1.23436 0.524953 0)
(1.01599 0.0134072 -1.1994e-18)
(1.01493 0.0142795 1.50585e-18)
(1.02543 -0.00978121 0)
(1.02349 -0.0118304 0)
(1.00642 0.00266743 0)
(1.01042 0.00377482 0)
(1.00458 0.00188029 0)
(1.00977 0.00627784 0)
(1.0078 0.00597212 0)
(1.00451 0.00473985 0)
(0.10161 1.37146 0)
(0.0986257 1.33313 0)
(0.132142 1.40802 0)
(0.150176 1.41231 0)
(0.145304 2.58935 0)
(0.184739 2.66009 -4.22128e-19)
(0.101646 2.64426 0)
(0.0853641 2.64735 1.97214e-19)
(0.0392039 2.67053 -1.45341e-19)
(0.02279 1.3327 0)
(0.0332359 1.24829 0)
(0.0250754 1.34295 0)
(0.046729 1.26957 0)
(0.00484729 1.981 6.91078e-21)
(-0.0195933 2.60114 -2.45492e-20)
(-0.00733301 2.65728 8.70109e-21)
(-0.01726 2.67719 0)
(-0.0227102 2.60685 7.51376e-21)
(-0.0227798 2.60188 2.08128e-20)
(0.0135547 1.97897 -1.60058e-21)
(-0.00710611 2.38737 3.29335e-20)
(-0.012447 2.41064 -9.86852e-21)
(1.01189 0.0400115 1.21401e-18)
(1.00539 0.0211957 -1.51143e-18)
(1.00408 0.0472279 -1.23687e-18)
(0.978747 0.0379452 1.55652e-18)
(1.06454 0.00873738 0)
(1.04963 -0.00810619 0)
(1.09515 0.0356446 0)
(1.07474 0.0133189 0)
(1.07254 0.00109748 0)
(1.14108 0.0847795 0)
(1.11264 0.0454798 0)
(1.11688 0.0331351 0)
(-0.0271382 2.42434 1.79763e-21)
(-0.0170013 2.01407 0)
(-0.0192924 2.2129 0)
(-0.0207862 2.59477 -1.40462e-20)
(-0.0177632 2.60501 3.09769e-22)
(0.000972256 1.58823 -4.37487e-20)
(-0.0104484 1.51567 4.4607e-20)
(-0.0192325 1.40448 0)
(-0.0232243 1.41157 0)
(-0.0307788 1.40586 0)
(-0.00329627 1.32621 0)
(0.0140667 1.2432 0)
(0.388123 1.50335 2.72518e-19)
(0.431534 1.50389 1.44973e-19)
(0.59681 2.43986 -2.40703e-19)
(0.3971 2.53748 7.07684e-19)
(0.348414 2.04678 7.2196e-20)
(1.0211 -0.00808515 0)
(1.01552 -0.00972824 0)
(1.01493 -0.0154956 0)
(1.00741 -0.00104411 0)
(1.00493 -0.000898445 0)
(1.00779 -0.00466719 0)
(1.00928 -0.00357728 0)
(1.01424 -0.00433682 0)
(1.02046 0.0166397 1.17517e-18)
(1.01751 0.0157782 -1.50537e-18)
(1.02078 0.0189455 -1.18473e-18)
(1.01814 0.0175027 1.48462e-18)
(0.788613 1.32863 0)
(0.723686 1.38007 2.47621e-19)
(0.901795 1.22879 9.97879e-20)
(0.947567 1.1746 -1.32805e-19)
(1.15188 2.59387 2.86257e-19)
(0.76374 0.123701 6.01644e-19)
(1.16464 0.110927 0)
(1.21447 0.19695 -4.66654e-19)
(1.20208 0.157091 -1.99053e-20)
(1.00573 0.159216 0)
(0.125264 2.95954 5.18516e-19)
(0.101092 2.86502 -1.12838e-18)
(0.00653737 2.37839 7.51059e-19)
(0.109828 -0.183868 -3.03272e-19)
(0.33347 3.41097 -2.18558e-19)
(0.18909 3.30673 0)
(0.233449 3.34618 2.84642e-19)
(0.236323 3.03098 -1.7427e-18)
(0.328855 3.18823 0)
(0.00711878 3.12081 4.50645e-20)
(0.0167194 3.12966 -5.30933e-19)
(0.0152879 3.12574 7.81444e-19)
(0.0345492 3.1395 0)
(0.0327635 3.15015 0)
(1.20605 2.59069 0)
(0.550866 0.796142 -5.26646e-19)
(1.07123 0.999461 -1.15199e-20)
(1.00707 1.08351 0)
(0.860802 0.978102 -1.09074e-19)
(1.09844 0.900288 2.78516e-20)
(0.266999 0.303606 -8.0625e-19)
(0.637251 0.326342 -1.57619e-20)
(0.520654 0.219759 4.05888e-19)
(0.503514 0.336956 2.89102e-20)
(0.385794 0.262004 -1.15751e-18)
(0.588965 0.326712 0)
(0.707208 0.433665 6.61171e-19)
(0.704203 0.433919 0)
(0.546469 0.341901 0)
(0.453966 0.237972 0)
(0.833628 0.63239 4.06114e-19)
(1.24144 0.292877 -4.8736e-19)
(1.24224 0.43282 0)
(1.25027 0.372813 0)
(0.669598 0.195327 6.2246e-19)
(0.877752 0.563512 -3.70398e-19)
(0.77739 0.541853 6.61515e-19)
(0.963474 0.453462 -7.32847e-19)
(1.01919 0.0150641 8.074e-19)
(1.01751 0.0144101 -8.11071e-19)
(1.01578 0.0154311 0)
(1.03659 -0.00553786 0)
(1.02998 -0.00832737 -7.59665e-19)
(1.02803 -0.011926 7.52117e-19)
(1.02491 0.0107219 0)
(1.02339 0.0145045 0)
(1.01142 0.00420507 0)
(1.01417 0.00922314 0)
(1.01518 0.00423801 0)
(1.01429 0.00294509 0)
(0.0725564 1.35483 0)
(0.0800946 1.29949 0)
(0.149003 1.38965 7.03387e-21)
(0.282469 1.48425 8.91287e-20)
(0.177465 1.45493 1.87407e-19)
(0.209866 1.46014 -3.05576e-19)
(0.177879 1.4154 0)
(0.136383 1.59974 -7.17337e-20)
(0.120415 1.57961 0)
(0.344169 1.99536 -1.04986e-19)
(0.340742 2.33295 6.13743e-19)
(0.196743 1.46703 6.25305e-20)
(0.269876 1.40142 2.28798e-20)
(0.203166 1.39434 -1.84742e-20)
(0.279924 1.34419 -1.05901e-19)
(0.243113 1.5782 0)
(0.269887 1.61466 1.14334e-19)
(0.0312399 2.2538 -2.87212e-20)
(0.0441589 2.65953 0)
(0.0668489 2.39004 1.35941e-19)
(0.0636027 2.41063 0)
(0.0699094 2.66094 -2.18559e-19)
(0.0496135 2.68984 0)
(0.0307016 1.45153 3.7811e-20)
(0.036961 1.498 0)
(0.0350134 1.41598 0)
(0.0307864 1.42258 -4.26695e-20)
(0.00142892 2.64343 -1.65226e-20)
(0.0302758 2.68889 1.62843e-19)
(0.011087 2.71426 1.13966e-21)
(0.00678782 1.84048 -1.01667e-20)
(-0.000286557 1.69461 -5.42958e-21)
(0.0194412 1.30925 0)
(0.0302305 1.22368 0)
(0.0462065 1.59699 -2.9646e-20)
(0.0359253 1.47761 -3.57235e-20)
(0.039679 1.54033 4.46486e-20)
(0.0412587 1.6203 0)
(-0.0304786 2.26619 1.09415e-19)
(-0.0314933 2.54174 -4.56095e-20)
(-0.0171404 2.44027 5.57318e-21)
(-0.00104533 1.85586 1.23199e-20)
(-0.0257833 2.49252 5.13534e-21)
(-0.0199499 2.43701 -9.46191e-21)
(1.01896 0.0223351 -8.05456e-19)
(1.01555 0.0287141 8.08567e-19)
(1.01279 0.0183871 0)
(1.00903 0.0714946 1.13341e-18)
(0.991651 0.0619761 -1.2651e-18)
(0.950944 0.0562112 1.41457e-18)
(1.01269 0.11204 -1.50824e-19)
(1.04304 -0.00550373 0)
(1.0515 -0.00105814 7.24333e-19)
(1.03935 -0.00966833 -7.25817e-19)
(1.07234 0.0433635 -4.30815e-20)
(1.06523 0.0244721 3.71523e-19)
(1.06308 0.0576942 0)
(1.05417 0.051112 -1.3367e-19)
(1.03214 0.0424117 0)
(1.02665 0.0385854 0)
(1.02793 0.0139027 0)
(1.02394 0.0166728 0)
(1.04021 0.0333155 2.75281e-19)
(1.0389 0.0271693 -6.0859e-19)
(1.05148 0.0349806 -2.91713e-19)
(1.04835 0.0350806 -3.21319e-19)
(1.07177 0.0660876 6.27063e-19)
(1.09739 0.0538737 0)
(1.10696 0.098339 0)
(-0.0263142 2.27079 6.07438e-20)
(-0.0265715 2.0199 1.67569e-21)
(-0.0225811 2.02735 0)
(-0.0275715 2.43877 -6.04566e-20)
(-0.0232757 2.39517 -3.3948e-21)
(-0.0339528 2.46519 6.54494e-21)
(-0.0204367 2.61435 -1.82809e-20)
(-0.023508 2.55589 5.7082e-22)
(-0.0220268 2.50802 -5.44709e-21)
(-0.0158308 2.60807 1.39302e-20)
(-0.0207031 2.61017 -1.54196e-20)
(-0.00756792 1.51635 -1.02469e-21)
(0.00151689 1.63503 -4.31507e-20)
(0.373264 1.45223 -1.14717e-19)
(0.373325 1.38485 4.00376e-20)
(0.664414 1.42979 -2.39505e-19)
(0.530505 1.49665 -1.42297e-19)
(0.588485 1.46275 0)
(0.592522 2.41701 2.07207e-19)
(0.661143 2.41315 3.37848e-19)
(0.410615 2.50627 8.82381e-20)
(0.401893 2.53013 -6.0844e-19)
(0.509476 2.4705 6.15011e-19)
(0.552632 2.45367 0)
(0.48703 2.51178 -5.5918e-19)
(0.24793 2.58377 1.14077e-18)
(0.354246 2.5557 -7.68475e-20)
(0.283366 2.6455 -1.584e-18)
(0.947905 2.36955 7.31142e-19)
(0.83767 2.37538 0)
(1.01109 0.000560309 2.63296e-20)
(1.01538 -0.00533481 -2.13559e-20)
(1.0177 -0.00343175 -3.90047e-19)
(1.01507 -0.000793848 3.92178e-19)
(1.01249 0.00130979 0)
(0.651882 1.29355 0)
(0.676167 1.1873 0)
(0.790631 1.107 0)
(0.669321 1.15066 0)
(1.18211 2.60731 6.02773e-20)
(1.06987 2.35455 0)
(0.831562 2.15586 3.91677e-21)
(0.822325 2.42294 0)
(0.920645 2.51737 -4.26353e-19)
(0.955744 2.47358 2.83567e-19)
(0.795598 0.184182 0)
(0.736053 0.15703 1.63188e-19)
(0.905325 0.153331 9.51022e-19)
(0.821353 0.156104 -3.55609e-19)
(0.774596 0.0904029 -1.09982e-18)
(1.08313 0.244229 -8.93812e-19)
(0.999629 0.308673 -1.807e-20)
(0.926594 0.312822 8.60655e-19)
(1.00658 0.237859 7.23476e-19)
(0.947199 0.201825 -1.25792e-18)
(0.908231 0.206222 1.57371e-19)
(0.946537 0.273792 -3.33746e-19)
(0.924441 0.232581 0)
(0.995688 0.198463 6.20253e-19)
(1.04713 0.196925 0)
(1.04502 0.225622 0)
(1.10819 0.122899 2.90579e-19)
(1.0722 0.183173 -1.52162e-20)
(1.07651 0.244177 -1.58101e-19)
(1.10196 0.209811 0)
(1.02096 0.0468609 6.20946e-19)
(1.04017 0.0600537 7.74808e-19)
(1.03369 0.0453312 -6.17083e-19)
(1.04244 0.0680644 -5.19868e-19)
(1.01714 0.0763691 -7.98577e-19)
(0.983755 0.161556 0)
(0.988848 0.106649 0)
(0.965968 0.0771546 -5.03273e-19)
(0.903861 0.0982064 2.00348e-19)
(1.04035 0.109043 7.18123e-19)
(1.06953 0.126265 -8.38184e-19)
(1.07681 0.158912 7.48496e-19)
(1.03198 0.153692 0)
(1.07507 0.113532 0)
(1.05401 0.0942485 -3.43573e-19)
(1.0445 0.0999804 -5.85905e-19)
(0.578337 1.04864 1.43115e-19)
(0.600982 1.37043 -4.50136e-20)
(1.1522 2.72337 -2.32722e-19)
(1.21742 3.06596 3.38246e-21)
(1.24352 2.70598 -1.30347e-19)
(1.27133 2.68877 -2.78178e-20)
(1.19798 2.32843 -1.13462e-20)
(1.20526 2.96962 -9.85769e-20)
(1.22578 2.93522 2.42187e-19)
(1.2071 3.21827 -1.40204e-19)
(1.36602 2.94832 1.93654e-19)
(1.35364 2.86609 0)
(0.572913 0.806312 -5.08513e-20)
(0.0962132 1.21232 5.64093e-19)
(0.567159 0.31554 5.31256e-19)
(0.401918 0.0597126 5.69125e-19)
(0.441522 0.308475 6.56873e-19)
(0.542764 0.425894 -1.06987e-18)
(0.546853 0.4196 8.75766e-19)
(0.443529 0.28136 -3.30772e-19)
(0.28793 0.208445 7.41441e-19)
(0.699369 0.271719 -3.59988e-19)
(0.65369 0.293972 0)
(0.582814 0.208465 6.18095e-21)
(0.743631 0.516601 3.5809e-19)
(0.72705 0.488398 -1.30154e-18)
(0.622791 0.45005 8.84655e-21)
(0.612432 0.439742 0)
(0.699755 0.71973 3.95694e-19)
(0.862005 0.784268 3.91621e-19)
(0.786714 0.867428 -4.58397e-19)
(0.907649 0.82165 -1.52678e-19)
(0.938842 0.866875 -3.66898e-20)
(0.945838 0.866587 3.75726e-20)
(0.872823 0.667099 -6.72963e-19)
(0.952579 0.719284 1.41754e-19)
(1.01297 0.733952 0)
(1.00357 0.710177 -1.91429e-19)
(1.02969 0.349598 2.11566e-19)
(1.15142 0.309711 2.87183e-19)
(1.07122 0.282006 3.65281e-19)
(1.02052 0.382621 -4.30486e-19)
(1.06978 0.444896 0)
(1.12634 0.424766 0)
(0.920725 0.38631 1.29072e-21)
(0.835304 0.320398 0)
(0.886001 0.319679 4.06574e-19)
(0.909808 0.321035 -8.42696e-21)
(0.9587 0.457281 2.041e-18)
(0.920651 0.513224 5.23612e-19)
(0.924412 0.479817 -5.59255e-19)
(0.837648 0.468321 6.00898e-19)
(0.821667 0.463672 3.60452e-19)
(0.790357 0.446875 -3.53782e-19)
(1.02744 -0.000133814 6.4981e-19)
(1.02006 0.000156158 0)
(1.01858 0.00108085 4.23718e-19)
(1.0218 -0.00144391 -9.5985e-19)
(1.0224 0.00462902 4.66293e-19)
(1.02032 0.0116861 -9.76466e-19)
(1.02122 0.011081 0)
(1.02042 0.011329 -2.03524e-19)
(1.01594 0.00794042 5.10576e-19)
(1.01657 0.0107549 -2.54825e-19)
(1.01729 0.0101121 1.87596e-19)
(0.0363528 1.33121 0)
(0.0433777 1.38735 0)
(0.0529053 1.33134 0)
(0.0604423 1.27682 0)
(0.075995 1.40451 -4.76523e-20)
(0.0864439 1.3701 2.13665e-20)
(0.114287 1.54942 -1.51018e-20)
(0.108253 1.39288 -4.19706e-21)
(0.0412968 1.48271 2.06988e-20)
(0.0449562 1.47639 -1.5931e-20)
(0.0689399 1.39198 -1.10865e-20)
(0.0615704 1.39271 4.59583e-20)
(0.0560243 1.36979 6.86747e-21)
(0.0465337 1.39374 3.9962e-21)
(0.107539 2.35732 -1.50191e-19)
(0.0962537 2.40636 0)
(0.169286 2.03132 1.09119e-19)
(0.114838 1.70231 4.02919e-20)
(0.234896 2.02931 -9.02045e-20)
(0.198824 2.41932 0)
(0.26165 2.36918 -6.08047e-19)
(0.301894 2.36686 4.29394e-19)
(0.228538 1.98883 -2.51436e-19)
(0.15496 2.14727 1.70363e-19)
(0.141327 2.25328 0)
(0.0192353 1.87663 8.71818e-21)
(0.00156131 2.38198 -2.82441e-20)
(0.00688604 2.14001 0)
(0.0120663 2.4463 -1.36815e-20)
(0.0297815 2.28883 7.4368e-21)
(0.0193111 1.4309 -8.31377e-21)
(0.0171891 1.4128 1.40443e-19)
(0.0155406 1.42149 -4.63283e-20)
(0.0242808 1.42736 -3.91449e-20)
(0.028704 1.45547 0)
(0.010938 1.40551 0)
(0.00452322 1.30981 -6.39335e-20)
(0.00631209 1.39995 1.85699e-20)
(0.0127861 1.39717 0)
(0.0133164 1.29984 -4.73144e-20)
(0.0257975 1.21454 9.64888e-20)
(1.04085 0.0121477 0)
(1.04711 0.00843332 -6.79797e-20)
(1.03894 0.0227385 -4.90324e-19)
(1.0486 0.0214014 0)
(1.05244 0.021181 0)
(1.03656 0.0124271 -6.80866e-21)
(1.03124 0.0122797 7.88114e-19)
(1.03178 0.0173189 9.55767e-19)
(1.02561 0.0212768 0)
(1.02256 0.0218683 0)
(1.03541 0.0263307 4.89194e-19)
(1.0259 0.0280959 0)
(1.02409 0.0276849 0)
(-0.0178094 2.02347 0)
(-0.00123814 1.66421 -4.23883e-21)
(-0.00528868 1.76758 -3.26774e-20)
(-0.00259033 1.40677 0)
(-0.00586461 1.57008 -2.48249e-20)
(-0.0115172 1.48316 1.51849e-20)
(-0.00996836 1.42345 0)
(0.387719 1.63374 0)
(0.376229 1.31055 -7.85255e-20)
(0.300206 1.33952 0)
(0.427456 1.30916 1.45811e-20)
(0.479066 1.47431 0)
(0.459154 1.41837 2.20199e-20)
(1.03582 2.6694 -1.54555e-20)
(0.968089 2.39783 -9.18756e-19)
(0.921413 2.18714 1.02807e-18)
(0.851789 2.36714 2.42976e-19)
(0.847078 2.4783 0)
(0.916732 2.47441 0)
(0.931261 2.36302 0)
(0.910211 2.35286 -9.48987e-19)
(0.685506 2.44131 -3.97544e-19)
(0.798941 2.43067 -9.84552e-20)
(0.809122 2.4048 7.47618e-20)
(0.694878 2.38597 0)
(0.800208 2.38117 0)
(0.758198 2.39492 -3.69619e-19)
(0.766482 2.46808 0)
(0.637758 1.09484 0)
(0.479392 0.892072 -5.2439e-19)
(0.574716 0.941596 -3.31131e-20)
(0.518173 1.02695 0)
(0.51862 0.967232 7.84079e-19)
(0.806997 0.889418 -1.29558e-19)
(0.814781 1.02449 0)
(0.79041 0.991562 1.84648e-19)
(0.675188 1.03541 0)
(0.67591 0.937842 0)
(1.16171 2.7466 -2.32829e-19)
(1.13908 2.8101 -1.00522e-19)
(0.926713 2.32251 1.06503e-19)
(0.894797 2.30238 -8.48376e-20)
(1.12756 2.71947 0)
(1.08169 2.68878 1.02046e-19)
(1.08684 2.47239 -3.14906e-19)
(0.981425 2.22608 -3.0036e-20)
(0.490058 1.32249 0)
(0.506636 1.05574 -1.26111e-19)
(0.580285 1.16843 0)
(0.848804 0.251578 0)
(0.755716 0.200838 0)
(0.662085 0.15444 0)
(0.839685 0.252617 -6.32659e-19)
(0.725537 0.245733 3.74847e-19)
(0.922115 0.0914413 -4.12846e-19)
(0.924425 0.133498 0)
(0.912642 0.142361 1.78408e-19)
(0.848711 0.118286 7.13293e-19)
(0.81257 0.0791767 -4.46946e-19)
(1.15149 3.34285 -7.11505e-19)
(1.2011 3.2626 0)
(1.14894 3.37221 -1.48203e-18)
(0.638018 3.53427 1.25586e-18)
(0.857679 3.10428 6.74011e-20)
(0.525196 0.782156 6.09493e-19)
(0.420816 0.779739 0)
(0.29497 0.338159 -1.47438e-19)
(0.484855 0.649295 8.54487e-19)
(0.576718 0.325963 -1.8917e-19)
(0.518245 0.461815 2.27073e-19)
(0.675437 0.518045 4.8224e-19)
(0.722742 0.560036 0)
(0.672445 0.570711 0)
(0.64046 0.527867 0)
(1.01285 0.62064 8.7061e-20)
(0.926283 0.56246 -5.09984e-19)
(0.952256 0.593544 3.83614e-19)
(0.980926 0.533564 -3.95615e-19)
(1.09014 0.499905 0)
(1.09898 0.591617 -9.58859e-20)
(0.856335 0.419418 -8.30473e-19)
(0.85409 0.407115 -1.02963e-18)
(0.784113 0.401773 6.30452e-19)
(0.79335 0.389939 -6.41279e-19)
(0.841977 0.345405 -5.20449e-19)
(0.787395 0.341417 6.36118e-19)
(1.02678 0.00620446 -4.96572e-19)
(1.02648 0.0064383 1.01092e-18)
(1.02957 0.00033662 6.29707e-19)
(1.03376 0.00123475 -7.58464e-19)
(1.03396 0.00937847 0)
(1.03023 0.0100618 -1.2339e-18)
(0.0642247 1.63831 1.87794e-20)
(0.0528159 1.59103 0)
(0.0913884 1.68742 1.26767e-19)
(0.0987003 1.66857 -1.12313e-19)
(0.0926593 1.5504 2.70057e-20)
(0.0919319 1.5521 0)
(0.0139089 1.69668 0)
(-0.00209589 1.51394 1.12334e-20)
(-0.000349128 1.46057 -1.00987e-20)
(-0.00759812 1.5668 5.45196e-21)
(0.00282117 1.88761 1.65392e-20)
(-0.00915683 1.9409 -4.15426e-21)
(0.496531 1.35197 -2.83494e-19)
(0.490327 1.35104 3.11649e-19)
(0.455327 1.30472 -3.5562e-20)
(0.436905 1.28053 8.04091e-21)
(0.643999 1.31205 0)
(0.558167 1.40278 1.0282e-19)
(0.574701 1.40967 -1.00102e-19)
(0.469719 1.29788 3.47355e-20)
(0.525389 1.24391 0)
(0.576668 1.20593 0)
(0.652564 2.40113 5.83974e-19)
(0.668329 2.44331 1.2617e-18)
(0.712643 2.45413 -8.69463e-19)
(0.608641 2.42806 -2.02054e-19)
(0.559297 2.51749 2.84673e-19)
(0.508668 2.49274 -7.58755e-19)
(0.977389 2.36959 -5.75523e-19)
(1.01076 2.38146 0)
(0.924788 2.16516 -6.59197e-19)
(1.05297 2.66773 0)
(1.05533 2.65429 0)
(0.591698 2.24962 -1.38778e-19)
(1.03292 3.14929 1.1868e-19)
(0.904257 3.02011 -2.04807e-20)
(0.255371 0.819622 0)
(0.277814 0.657972 -3.18555e-19)
(0.452317 0.620221 -3.22116e-19)
(0.372055 1.99289 0)
(0.458349 2.77591 -4.69232e-20)
(0.410476 2.53826 0)
(0.726265 0.670188 -8.34958e-19)
(0.809461 0.692876 1.11196e-18)
(0.829074 0.633407 -1.09829e-18)
(0.702559 0.635711 -1.065e-19)
(0.756345 0.595911 -4.35415e-19)
(0.997774 2.7467 -9.02695e-20)
(1.04044 2.8105 -1.7274e-19)
(0.626665 2.10836 7.23397e-19)
(0.578235 1.67801 -5.1464e-19)
(0.690586 1.88129 -4.16081e-19)
(0.984568 2.4312 -1.13272e-19)
(0.992253 2.42443 3.03272e-19)
(0.643268 1.81228 2.8901e-20)
(0.436323 1.30053 1.47272e-19)
)
;

boundaryField
{
    wall-4
    {
        type            noSlip;
    }
    velocity-inlet-5
    {
        type            fixedValue;
        value           uniform (1 0 0);
    }
    velocity-inlet-6
    {
        type            fixedValue;
        value           uniform (0 3 0);
    }
    pressure-outlet-7
    {
        type            zeroGradient;
    }
    wall-8
    {
        type            noSlip;
    }
    frontAndBackPlanes
    {
        type            empty;
    }
}


// ************************************************************************* //
