/*--------------------------------*- C++ -*----------------------------------*\
| =========                 |                                                 |
| \\      /  F ield         | OpenFOAM: The Open Source CFD Toolbox           |
|  \\    /   O peration     | Version:  2206                                  |
|   \\  /    A nd           | Website:  www.openfoam.com                      |
|    \\/     M anipulation  |                                                 |
\*---------------------------------------------------------------------------*/
FoamFile
{
    version     2.0;
    format      ascii;
    arch        "LSB;label=32;scalar=64";
    class       volScalarField;
    location    "92";
    object      p;
}
// * * * * * * * * * * * * * * * * * * * * * * * * * * * * * * * * * * * * * //

dimensions      [0 2 -2 0 0 0 0];

internalField   nonuniform List<scalar> 
918
(
0.561915
1.1689
0.000294236
0.561386
-0.0126538
1.13589
-0.511464
0.654253
0.542125
-0.104176
-0.0553026
0.544072
0.996466
0.761918
-1.12221
-0.0138093
0.655359
-0.380897
0.541262
-0.07601
0.675192
0.548656
0.551679
0.542256
0.601243
0.734876
0.877357
0.0327612
0.0133892
0.00796472
-0.0120977
-0.0388592
-0.0336384
1.01956
1.07062
1.09331
0.509831
0.337456
-0.376684
-0.451064
-0.43675
-0.536375
0.656558
0.658106
-0.214442
0.655848
0.653369
0.529124
0.541496
0.542412
0.543417
0.542409
0.543786
0.404142
-0.105272
-0.136749
-0.0849824
-0.0780967
0.0497223
-0.0539917
-0.0550965
-0.0548794
-0.0563158
0.458869
0.538568
0.535187
0.548308
0.557574
1.10845
1.08041
1.10654
1.02007
1.03663
0.974484
0.947122
0.783054
0.80463
0.746198
0.734359
-1.54934
-2.49272
-0.536841
-0.288698
-0.0108556
-0.0121321
-0.00681461
0.652752
0.653983
0.65572
0.657214
1.07956
-0.377693
-0.480917
0.541407
0.54022
0.548521
0.549223
0.545245
0.544334
-0.0658014
-0.0627228
-0.0635976
-0.0708072
-0.0684006
0.646301
0.653477
0.542782
0.539782
0.565285
0.585991
0.575674
0.281351
0.611992
0.628102
0.570234
0.731024
0.722525
0.732448
0.850934
0.814127
0.914651
0.937885
0.0195978
-0.000441082
-0.0181096
-0.0212066
-0.0203855
0.505657
0.498187
0.526105
0.513272
0.515783
0.255131
0.122949
0.421754
0.446022
-0.296299
-0.364973
-0.429819
-0.459264
-0.567147
0.616337
0.658864
0.656064
-0.223648
-0.151594
-0.286783
-0.078148
-0.141626
0.519367
0.526397
0.521386
0.536965
0.531426
0.533392
0.545776
0.542844
0.544405
0.466112
0.589349
0.33048
0.294711
-0.242334
-0.151966
-0.240688
-0.0679601
-0.0651211
0.0642862
0.0902786
0.0361149
0.02404
-0.0613104
-0.0567792
-0.0588237
-0.0562765
-0.0582617
0.451572
0.440282
0.471593
0.479172
0.525319
0.526727
0.53111
0.529179
0.898064
0.920324
0.927854
0.90174
-3.47357
-6.23924
0.0327536
0.167927
-0.00703433
-0.0101327
0.00180598
-0.00635369
-0.00062269
-0.00231795
-0.0120406
-0.0134677
-0.00829536
-0.00711356
0.647918
0.648459
1.00282
1.0111
0.977362
0.930663
0.529698
0.53173
0.5372
0.533101
-0.05895
-0.0608945
-0.0594156
0.652955
0.650462
0.652038
0.24258
0.152181
0.332701
0.362058
0.641683
0.63112
0.640102
0.629438
0.664912
0.945222
0.963354
0.96169
0.970003
1.01413
1.03061
0.995815
0.485032
0.495052
0.489979
0.528916
0.526839
0.527676
0.52413
0.525116
0.523267
-0.0265495
-0.403794
0.492312
0.50832
0.495299
0.496474
0.696533
0.775386
0.656894
0.657752
0.657198
-0.00801014
-0.0666215
0.249669
0.215156
0.390741
0.427374
0.406182
0.869095
0.829658
0.879714
0.853093
0.814559
0.84029
-0.355423
-1.84558
-0.969736
0.513693
0.329987
0.415982
0.00553116
-0.0114918
-0.00671385
1.00369
1.0746
0.645034
0.820538
0.822432
0.70206
0.732282
0.787141
0.713348
0.747808
0.782229
0.763976
0.571863
0.505305
0.522198
0.844189
0.899635
0.121423
0.0586645
0.0149451
0.109628
0.167617
0.141286
1.03424
0.952739
1.02235
0.539545
0.540271
-0.00920975
-0.0261197
0.544539
0.544597
-0.0142855
-0.00394076
0.39967
-0.829266
0.0987215
0.533157
0.522975
0.540144
-0.0895777
0.355518
-0.054838
0.045919
-0.0128126
0.534465
0.470042
0.429018
-0.00382563
-0.0234924
-0.0653332
-0.210636
0.537214
0.535519
0.539611
0.540546
0.541231
-0.0229838
-0.0192892
-0.012552
-0.0592023
-0.0512558
-0.0667688
0.503999
0.523078
-0.168391
0.539763
0.541902
0.541719
0.535008
0.540625
0.538887
-0.0142985
-0.0183741
-0.0208914
0.222097
0.355505
0.635284
0.719558
0.608022
0.386879
0.154433
0.541056
0.603147
0.510413
0.662013
0.654362
0.651476
0.164142
0.013155
0.173701
0.115556
0.531012
0.529754
0.521224
0.518177
0.535011
0.53312
0.537689
0.53472
0.537674
0.539049
-0.046379
-0.0725292
-0.0820679
-0.148506
0.310355
0.570717
0.255579
0.284675
0.140924
-0.050056
-0.0516481
-0.0522721
-0.05851
-0.000556513
-0.0286021
0.0402087
0.0396498
0.0100261
-0.0155522
-0.0115178
-0.0233945
-0.0160727
0.52775
0.527658
0.532537
0.5411
0.479734
0.483512
0.448195
0.469088
0.45422
0.392584
0.428294
0.403364
-0.00899161
-0.00199774
-0.00554892
-0.0220106
-0.018419
-0.0398533
-0.0372811
-0.0314524
-0.0282285
-0.0354659
-0.0584067
-0.0625285
-0.168285
-0.284404
0.989349
0.908451
0.142259
0.526352
0.532818
0.529574
0.534518
0.537649
0.538442
0.536142
0.532684
0.523413
0.52512
0.521641
0.522579
-0.098736
-0.241709
-0.0695155
-0.145689
0.150616
0.632783
0.367406
0.302192
0.297743
0.527552
0.902632
0.683589
0.650751
0.637945
-0.344606
0.0387536
-0.283376
0.327325
0.160755
0.636216
0.685072
0.707077
0.654979
0.608401
-0.0926921
0.560703
-0.0740333
-0.0208919
0.181897
0.0556953
0.63979
0.643154
0.648948
0.643521
0.652481
0.645175
0.625393
0.627464
0.643271
0.650007
0.483046
0.252765
0.202904
0.164407
0.647601
0.51705
0.565789
0.492405
0.526242
0.528846
0.527522
0.508835
0.516431
0.511946
0.518531
0.522066
0.530715
0.531199
0.526443
0.528575
-0.0533217
-0.0591842
-0.023353
-0.132943
-0.125583
-0.188426
-0.0573502
0.0784583
0.0398125
0.23956
0.342897
0.0550622
-0.0542758
-0.0272736
0.0166676
0.183068
0.211759
0.0752579
0.161472
0.154593
0.134838
0.237823
0.240451
-0.0314163
-0.0320502
-0.036201
-0.0399824
0.0172443
0.0891532
0.0982443
-0.0122809
-0.0159718
-0.0498655
-0.0528809
-0.0219402
-0.0268215
-0.02254
0.00531513
-0.0562183
-0.0241139
-0.0103986
-0.0125439
-0.0112761
-0.016282
0.522447
0.524214
0.524433
0.533441
0.545587
0.560278
0.525828
0.502006
0.492761
0.495767
0.468665
0.479009
0.474818
0.488488
0.509778
0.518295
0.516624
0.519443
0.501776
0.503477
0.489986
0.493673
0.468686
0.449247
0.437173
-0.0467667
-0.00907692
-0.0171987
-0.0419404
-0.0127733
-0.0242919
-0.0157188
0.00360151
-0.0135394
-0.014132
-0.0240997
-0.0325448
-0.0325049
-0.0700952
0.0175253
-0.182016
-0.217005
-0.290695
0.891985
1.01615
0.810408
0.583565
0.605044
0.848024
0.931806
0.543314
0.736185
0.758934
0.590795
0.858116
0.531207
0.5308
0.528399
0.527874
0.529096
-0.00183972
0.10595
0.10114
0.166911
0.282374
0.392807
0.328104
0.198071
0.328994
0.332235
0.62497
0.636786
0.593457
0.617699
0.618692
0.429254
0.504928
0.556608
0.517631
0.570196
0.592034
0.54571
0.579215
0.527914
0.483047
0.479146
0.428943
0.448401
0.423884
0.407098
0.521831
0.498431
0.509364
0.499488
0.521631
0.54773
0.544846
0.567587
0.582619
0.50225
0.457369
0.466597
0.496817
0.458477
0.473949
0.489763
0.241086
0.14383
0.22628
-0.0577051
0.0093779
-0.00164765
-0.0512093
0.00223291
0.28591
-0.402692
-0.379859
-1.0036
0.511483
0.944136
0.557802
0.53783
0.65208
0.640848
0.645341
0.661534
0.654764
0.635974
0.643771
0.648615
0.592978
0.614284
0.628258
0.625711
0.528318
0.38292
0.383063
0.330148
0.200159
0.240678
0.435965
0.360549
0.285696
0.285745
0.460396
0.346416
0.417292
0.449576
0.380523
0.335132
0.538963
0.604887
0.597924
0.571983
0.480903
0.492228
0.517452
0.551082
0.574328
0.609064
0.517937
0.523898
0.525125
0.522597
0.519862
0.522959
0.523211
0.525791
0.526413
0.52943
0.528497
-0.0504732
-0.0372504
-0.0477489
-0.0590243
-0.0153248
-0.0178308
0.0255582
0.0129227
-0.0145318
-0.0100393
-0.0307612
-0.0349171
-0.0320902
-0.024815
0.105068
0.11746
0.101817
0.0624305
0.254183
0.383077
0.457591
0.332576
0.227617
0.251388
0.269521
-0.0120774
0.0122775
-0.000166088
0.0396376
0.0323945
-0.0419945
-0.0468036
-0.0443799
-0.0337059
-0.0255265
-0.0475482
-0.0567116
-0.045361
-0.0492354
-0.0521537
-0.0587904
0.504289
0.49778
0.499371
0.493334
0.492042
0.506238
0.510539
0.512547
0.518085
0.520326
0.510384
0.515816
0.519759
-0.017631
-0.0412405
-0.0437428
-0.038958
-0.0390515
-0.0371333
-0.0397041
0.128166
0.0603733
0.0633675
0.0153435
-0.117741
-0.0598795
0.496643
0.494319
0.482493
0.724642
0.573769
0.49513
0.592026
0.697757
0.281699
0.475724
0.311775
0.890687
0.788121
0.934177
0.545076
0.253851
0.420904
0.459307
0.276114
0.354193
0.327206
0.217304
0.247497
0.288289
0.385314
0.272203
0.250729
0.00751035
0.197998
0.307233
0.289378
0.41209
0.471508
0.276563
0.194984
0.149848
0.609309
0.628586
0.641878
0.614225
0.636934
0.586227
0.578082
0.593549
0.601815
0.595312
-0.732962
-0.439167
-1.38736
-0.715837
-0.257596
0.541682
0.518348
0.775506
0.645172
0.670058
0.654883
0.618955
0.590765
0.616228
0.635969
0.341532
0.452462
0.427243
0.433996
0.336808
0.266302
0.566077
0.563822
0.597327
0.621419
0.592367
0.623158
0.515742
0.515461
0.514925
0.511165
0.509429
0.51177
0.0603065
0.0275729
0.0692637
0.051755
0.0295443
0.0175886
-0.0195499
-0.0300085
-0.0359424
-0.0345721
-0.0197766
-0.0161229
0.180745
0.106235
0.0333784
0.0595279
0.00374595
-0.0661605
-0.0855306
0.0211283
0.12
0.109782
0.409365
0.657404
0.47784
0.644883
0.488133
0.543814
0.470884
0.462034
0.485984
0.384554
0.464933
0.264959
-0.244639
-0.154711
0.800853
0.810908
0.584882
0.414666
0.180345
0.352837
0.542603
0.471281
0.505997
0.574294
0.560656
0.041846
0.0958071
0.393678
0.620496
0.24942
0.239842
0.233406
0.421201
0.33766
)
;

boundaryField
{
    wall-4
    {
        type            zeroGradient;
    }
    velocity-inlet-5
    {
        type            zeroGradient;
    }
    velocity-inlet-6
    {
        type            zeroGradient;
    }
    pressure-outlet-7
    {
        type            fixedValue;
        value           uniform 0;
    }
    wall-8
    {
        type            zeroGradient;
    }
    frontAndBackPlanes
    {
        type            empty;
    }
}


// ************************************************************************* //
