/*--------------------------------*- C++ -*----------------------------------*\
| =========                 |                                                 |
| \\      /  F ield         | OpenFOAM: The Open Source CFD Toolbox           |
|  \\    /   O peration     | Version:  2206                                  |
|   \\  /    A nd           | Website:  www.openfoam.com                      |
|    \\/     M anipulation  |                                                 |
\*---------------------------------------------------------------------------*/
FoamFile
{
    version     2.0;
    format      ascii;
    arch        "LSB;label=32;scalar=64";
    class       surfaceScalarField;
    location    "92";
    object      phi;
}
// * * * * * * * * * * * * * * * * * * * * * * * * * * * * * * * * * * * * * //

dimensions      [0 3 -1 0 0 0 0];

oriented        oriented;

internalField   nonuniform List<scalar> 
1300
(
3.75095
5.62643
-3.27074
3.75095
-7.75323
5.62643
-4.41385
4.41385
-0.34407
0.34407
1.87638
1.87457
-2.69583
2.69583
-2.02388
2.02388
-2.52144
2.52144
-5.24644
5.24644
-5.06954
5.06954
4.64815
-4.64815
-6.31816
6.31816
-0.936147
0.936147
-3.69609
3.69609
3.16958
-3.16958
-1.9149
1.9149
0.0977385
-0.0977385
-0.553467
4.30442
3.19749
3.19749
-2.00633
2.00633
-4.87002
4.87002
6.21798
-6.21798
5.24765
-5.24765
-1.97691
-2.49253
1.80032
-11.4617
-5.95291
-5.95291
-8.44036
8.44036
-2.81393
2.8125
2.94647
-2.94647
-1.76302
1.76302
-4.37789
-0.0359605
-4.37789
4.38223
0.0316191
4.38223
-0.453563
0.109493
-0.453563
4.01898
-4.01898
0.238046
0.106023
0.238046
3.06541
-3.06541
-1.87712
3.75351
1.87383
-1.8719
6.17632
-1.87905
3.75362
-6.01178
6.01178
-2.94232
0.246493
-2.94232
2.48232
0.213514
2.48232
-6.85105
6.85105
-2.08231
0.0584377
-2.08231
1.97112
0.0527561
1.97112
2.88226
-2.88226
-2.62764
0.1062
-2.62764
2.39256
0.128876
2.39256
0.353497
5.27293
-5.97993
8.79243
-5.27293
0.0264912
5.2083
0.0381455
5.2083
-5.10613
0.0365871
-5.10613
5.01303
0.0565085
5.01303
4.73047
-0.082314
4.73047
-4.76881
0.120658
-4.76881
-3.36836
-4.05809
-6.46863
0.150471
-6.46863
-1.02537
0.0892244
-1.02537
0.823625
0.112522
0.823625
-3.68786
3.68786
-4.11933
0.423238
-4.11933
3.12395
0.0456272
3.12395
1.86849
1.88247
5.61944
-5.61944
2.44986
-1.88069
-0.0342018
-1.88069
-1.99616
-3.25149
1.99616
-0.0812677
-0.145167
0.242905
-0.145166
3.15945
0.0380315
3.15945
2.23523
0.157333
-2.23523
0.228901
3.28141
-3.28141
1.3344
0.671928
1.3344
-5.5629
5.5629
4.95734
0.0556906
-4.95734
0.0873201
6.15676
0.0612251
6.15676
-6.19956
-0.0184239
-6.19956
2.52567
-5.01819
-2.65846
6.13572
0.182442
-6.13572
0.182805
2.91847
0.0280025
2.91847
-2.91775
2.91775
-2.98488
0.0384077
-2.98488
-2.16165
0.39863
-2.16165
1.46506
0.297962
1.46506
-4.28074
-0.0971447
-4.28074
-4.2709
0.151567
4.2709
0.111335
1.12946
-1.12946
-0.58687
0.133307
-0.58687
-4.14513
-0.135614
4.14513
-0.126149
-3.90554
-0.113438
-3.90554
-3.02464
0.0397645
3.02464
0.0407652
3.11291
0.0465406
-3.11291
0.0475076
-1.87081
3.75328
-1.88014
3.75397
-5.63261
-0.379167
-5.63261
6.32275
-0.310967
6.32275
3.33688
0.359207
-3.33688
0.39456
2.31087
0.171448
2.31087
-6.81176
-0.0392919
-6.81176
6.83765
0.0133969
6.83765
2.17931
0.131557
-2.17931
0.0969985
1.92481
0.0463109
1.92481
2.90301
-0.0207587
2.90301
-2.87608
-0.00617605
-2.87608
2.79017
-2.79017
2.71515
0.0750187
-2.71515
0.0875148
-11.1331
11.1146
-0.0351912
-11.0979
5.1731
5.1731
4.15517
0.575295
4.15517
-4.98899
0.220175
-4.98899
2.69635
-5.35482
3.10797
-6.47633
4.6601
-16.1218
4.2836
-8.3417
6.70704
-6.70704
6.59683
0.110209
-6.59683
0.128203
-1.1438
0.118427
-1.1438
-3.08752
-0.600335
-3.08752
4.328
-0.640137
4.328
-3.02786
3.02786
-3.07734
0.0494877
3.07734
0.046603
1.88832
0.036486
-1.88832
0.00762842
0.170613
0.0674338
-0.170613
0.0254461
3.49716
-0.215752
3.49716
-3.08168
-0.199724
-3.08168
-1.24401
0.100208
1.24401
0.0903963
-5.81302
0.250112
-5.81302
-11.1908
0.0929453
-11.1527
-6.10661
-6.10661
2.33375
11.1262
-2.89388
0.017803
2.89388
0.0245834
2.97431
0.053548
-2.97431
0.0565607
-2.85694
0.066767
2.85694
0.060808
-2.53637
0.374722
-2.53637
-1.06647
1.06647
-1.22961
0.163133
1.22961
0.235453
1.40406
-0.274601
1.40406
0.707343
0.116282
-0.707343
0.120473
-3.80204
-0.103508
-3.80204
6.5586
-0.235853
6.5586
-2.96565
-0.116031
2.96565
-0.062636
-0.0333159
11.1479
-5.13979
0.0336626
5.13979
-11.2092
11.2428
-3.20639
0.670019
3.20639
0.948781
5.28336
0.279545
-5.28336
0.294372
6.78958
0.0480717
-6.78958
0.0825383
-2.59537
-0.49215
-2.59537
-5.05185
-0.580765
5.05185
-0.72385
-11.474
-0.205652
11.6797
-11.4175
6.01867
0.13809
-6.01867
11.3809
-1.02703
-0.10243
1.02703
0.0394389
1.73285
-0.328788
1.73285
3.69662
-0.199463
-3.69662
-0.105414
-6.71362
-0.0981374
6.71362
-0.155019
-2.15031
-0.445066
2.15031
-0.417455
-4.26714
4.30517
1.90919
-2.37514
-2.64305
-5.62663
1.85184
1.90144
4.30171
-10.1215
-6.00026
-9.93869
7.26069
-6.96631
-9.23072
9.14841
7.9163
-8.02974
-5.78465
5.83125
6.483
-6.44224
1.87885
1.87466
8.0423
-7.7958
-15.5626
15.1835
7.58255
-7.52411
15.7183
-15.7576
-17.8
17.8481
-5.70731
5.81351
-6.74101
6.73483
-6.97738
6.91475
-2.83592
-3.64041
13.0795
-12.929
8.65224
-8.68644
-8.64345
9.06668
3.38261
0.92256
3.42915
-1.88213
3.76098
-1.87149
3.78068
2.75599
-5.59191
2.59883
-5.24188
4.40189
4.25035
-4.32062
-1.30601
-5.92503
5.95303
-5.81426
5.87506
9.16929
-9.20525
-1.88518
3.75984
-1.86879
3.77023
-3.42499
-2.35966
3.37936
0.922341
8.04846
5.03099
-8.2309
-1.70778
-8.05137
7.8519
-8.23606
8.03634
-0.433063
5.81909
-5.38603
4.43696
-1.56593
7.38502
5.69476
5.91494
5.86564
-5.58609
1.10067
-6.4867
-6.39938
-2.19802
2.33132
2.08536
-1.97933
6.16665
1.74965
6.0405
-5.77319
-2.25655
-5.87669
3.82035
2.0109
3.86984
4.07857
2.40443
4.11834
3.03039
-3.03602
0.00563494
-3.05673
6.08712
0.723815
-5.41639
-4.49405
4.98613
3.05616
5.19965
-5.56916
-2.22664
-5.1746
-9.51475
-6.04787
-10.0955
10.057
5.12643
9.74606
-11.925
11.77
4.81347
2.76908
4.86623
-4.96194
-2.56217
-4.86494
11.6263
-2.64672
-8.97963
-10.2911
-7.50896
10.2777
5.4406
10.9338
6.9143
11.0163
4.41517
7.21117
-9.85578
2.34682
-3.86825
-1.83906
-3.78073
3.67591
2.13759
3.80479
-4.21771
-2.5233
-4.19991
-4.29602
-2.68136
4.31678
2.41806
-4.41859
-3.81747
4.53462
2.38012
4.03785
-10.0381
4.30385
-7.94426
-9.17178
-3.75721
-9.04358
3.55908
2.61312
-6.1722
-2.03283
8.58071
-4.33036
7.27471
-5.21807
-3.46838
-5.21044
-6.90538
-1.73806
-6.75382
-8.85624
8.36409
-9.15177
8.51163
12.4727
-5.62583
-6.84692
-3.96848
-2.47376
3.92098
-0.491826
-3.71045
3.71609
0.0505237
3.8312
4.75376
4.26194
-3.88506
-1.92919
-3.8285
3.82503
2.05003
3.8918
6.86003
2.30926
6.89165
-6.63577
-2.56948
-6.73291
9.01596
-8.61733
2.83103
-2.73082
5.40387
2.63247
-5.18812
-2.86325
6.20721
-3.21979
-2.98742
-12.2053
10.5206
1.68467
-4.82026
-0.3833
-0.481038
-5.48407
-3.74665
5.36341
0.551527
11.0721
7.32548
-5.51168
5.76179
6.168
6.22369
-0.175695
5.79089
-5.12087
5.25998
-2.62197
-2.638
5.49331
-5.62893
-1.2396
-5.54782
4.30822
0.41157
1.38854
-1.14563
-1.74486
-0.453154
-1.62439
1.17454
0.910812
1.24198
0.962363
1.36896
-2.93777
0.500878
2.4369
-1.97541
-1.47845
-3.86359
-1.13621
4.9998
5.74888
2.10302
-5.64347
-0.233228
2.50644
-2.39392
-0.817324
-3.04626
2.23102
-3.04834
-3.6628
-2.10137
5.76417
-3.36982
-0.458681
3.31627
0.553569
-3.82731
-2.09772
3.7889
0.329436
-3.1284
6.19092
-3.06253
-5.05759
2.52742
3.5597
4.53832
-4.78958
2.44785
2.34173
-1.22988
4.2521
0.94755
4.42355
-6.96477
4.73813
5.82065
3.24604
-6.17985
1.00525
-5.95952
8.55159
-7.38032
-1.17127
4.16865
4.38294
7.03897
5.43378
-5.65717
12.6961
-1.20907
-6.17125
7.16858
-3.92255
4.85848
-8.78102
-10.2923
4.121
-9.10433
10.879
-1.77468
-3.6148
-8.31023
12.7191
-1.19997
-11.5192
8.54609
-4.29455
-4.4167
8.71125
-6.94127
6.97887
-1.99214
-4.98673
-10.076
-5.68153
10.1742
1.59584
-9.94417
12.291
-2.73299
4.12127
0.744962
4.16758
3.30659
-5.49289
2.18631
3.63468
-5.62683
2.07813
-7.57102
-6.71412
12.046
-5.33191
-10.4713
-9.49174
-0.979592
2.53565
9.75534
-9.44995
7.40877
2.04118
3.3007
0.591096
-3.37572
-0.405008
0.233464
4.51294
-4.7464
4.03825
4.19558
3.26249
1.25045
3.84574
2.10729
-3.87032
-0.329587
-4.1643
1.48293
-1.74624
-3.69534
5.17827
-4.06761
0.372271
-2.74412
-3.49762
6.24174
-4.58318
3.03468
3.15625
5.08471
-4.91383
1.41621
-2.39278
-2.52105
2.6514
-4.39764
1.99519
3.18308
4.37532
0.557848
5.87169
6.17434
-8.48481
0.540554
11.2053
-9.49755
2.45886
8.55747
-9.86763
0.375893
-8.66768
1.00436
-5.33473
-5.16784
5.21035
-6.94841
-3.57067
6.23175
0.659897
-6.34309
-0.41073
-6.01956
-2.83668
-6.46462
-3.03557
-6.11619
-8.69275
-1.64756
-7.04519
6.71653
-6.66497
-3.43055
7.38882
1.12281
-7.39329
7.29086
-7.47152
7.14273
0.0954871
3.6206
4.35742
1.88367
-2.39072
4.27439
-5.1317
7.44095
-8.74388
3.61219
4.22009
-6.78957
-4.52379
5.00768
4.00828
5.30564
8.86002
-10.3182
1.45814
-10.619
11.952
-1.33299
-16.3673
5.74827
-7.50724
2.43259
0.398435
2.55102
0.540948
2.49868
-3.03963
-2.18987
-2.09948
-2.44334
-3.46469
5.90803
1.0823
-3.53257
2.45028
-3.56769
4.64999
-0.221385
-3.31119
5.26506
-2.76637
5.66349
-3.78908
1.87441
3.44084
5.75453
-2.31369
4.39589
-1.76342
1.93205
-4.24574
-1.53264
-2.9544
5.092
-3.28733
3.6596
-0.345599
4.0052
-4.04571
0.82592
-0.783223
3.41236
3.64126
4.31715
-3.0667
2.91601
-4.67943
-1.32973
-4.12158
-0.938502
-0.252337
-3.68827
3.94061
5.9595
-6.21184
-5.22446
9.50724
-4.28278
7.67617
-5.37157
-2.30461
-4.23959
-4.37774
3.86487
1.92602
9.60219
0.206707
-5.57827
-4.91416
-3.96538
3.09709
2.16289
-1.68949
3.37416
2.17053
-0.78199
0.435427
0.80655
1.76516
-1.32973
0.313637
1.45152
-0.831996
1.69036
0.816085
-1.80664
0.182249
-1.35648
3.58749
1.08042
-1.99123
0.661503
0.979873
-3.60185
5.08477
-2.69464
-2.39013
6.06464
1.14499
-3.83962
4.40283
-3.99126
2.4072
-3.54342
-1.43242
-5.42368
-3.67402
-2.51398
4.96425
-3.39405
5.49707
1.30145
-5.26384
6.56529
-3.73156
1.63019
-3.03918
3.85526
-0.918436
-2.12074
2.90096
2.86321
-3.09175
0.0454871
-0.190792
2.40173
-2.59252
-0.64661
-2.62202
-4.57374
4.90317
-2.10508
4.55293
2.16931
-1.91735
6.47027
1.80863
-3.72597
-3.24896
-3.70764
-1.38425
3.15407
-0.568383
-4.29656
-5.55511
4.165
0.258542
-7.08033
7.89771
-0.817378
-4.02417
-0.713954
4.88261
-6.09527
0.468449
-4.01714
3.88057
4.82812
5.08666
-11.2979
-0.221256
-6.17148
1.11879
-7.29027
5.50173
-3.52489
7.64589
-10.2941
6.86352
-9.17126
6.47462
-0.815653
6.23491
-4.04861
2.74472
-8.42625
-6.83041
5.56787
-2.79879
6.31283
-3.17946
9.49229
-5.91246
5.34687
4.14542
-1.01995
-4.19049
-5.36045
4.3405
-0.0135775
4.154
4.98046
-2.87317
4.65087
2.27007
-4.66285
-2.12757
-6.49628
1.83344
-3.34004
-1.92141
3.75485
3.16329
3.75439
1.2338
-3.34938
7.20112
-8.18071
-1.86921
-3.29862
5.35413
-1.01363
3.44897
-6.7476
-1.88575
4.77271
-0.77685
-3.99586
0.853116
-4.42379
1.67662
-6.1004
5.2718
-5.68253
2.22073
-9.72797
-5.17255
-5.13311
-2.25663
-5.21489
-7.54964
5.293
-1.80137
5.48949
-8.47742
7.70057
-3.47456
8.76757
-5.41552
-1.0491
5.83298
1.30976
10.0773
0.228448
-4.75224
-1.92813
3.82654
-1.89841
1.16896
-3.45983
0.366719
2.50251
3.56213
-6.81072
0.0211558
-4.73109
-3.90936
7.91764
5.59787
11.5574
1.23921
9.09532
-1.17768
10.3345
4.12796
4.36341
-2.97597
4.4341
0.964645
4.57683
-0.927332
2.80175
1.62369
1.71291
0.681007
2.30376
1.3375
3.12968
0.090047
-2.00943
4.61455
-8.57994
-0.963722
-8.00464
1.14376
5.70155
-4.55778
2.90472
-0.741831
1.00631
-0.145711
-1.14264
1.28835
-2.78371
-1.92463
-0.473109
-1.69149
2.35299
1.896
-1.87988
-0.90383
0.348901
-4.02292
3.19452
-3.14903
-0.285818
6.27948
-2.81276
0.22024
-1.18258
-2.40178
-2.85493
2.67269
6.1764
0.29387
3.11388
5.19704
3.09933
0.22616
3.87878
-5.65346
-3.69224
-5.87472
-0.372987
4.50962
1.76345
7.99189
5.90887
4.89524
-1.85236
-10.0331
6.49484
-2.06073
5.16185
-1.16598
-4.93442
5.06135
2.3796
-5.72125
0.038726
-4.8957
-6.95643
-0.510143
8.21071
-9.56718
8.51808
5.6814
1.36379
-4.3922
-0.740913
4.22907
0.134346
10.4689
-1.13075
-6.68837
7.81912
-4.5708
3.60708
0.727679
2.64648
2.01603
1.2742
-5.41417
-9.97196
-2.07504
-1.52681
-4.46517
0.534634
-2.43064
6.20943
-2.60236
3.90483
5.21676
6.22307
-2.12567
-4.08617
6.40845
-2.50362
3.71945
)
;

boundaryField
{
    wall-4
    {
        type            calculated;
        value           uniform 0;
    }
    velocity-inlet-5
    {
        type            calculated;
        value           uniform -3.75095;
    }
    velocity-inlet-6
    {
        type            calculated;
        value           uniform -5.62643;
    }
    pressure-outlet-7
    {
        type            calculated;
        value           nonuniform List<scalar> 8(3.27074 7.75323 4.46944 9.66133 7.42646 5.18413 5.80432 8.9437);
    }
    wall-8
    {
        type            calculated;
        value           uniform 0;
    }
    frontAndBackPlanes
    {
        type            empty;
        value           nonuniform List<scalar> 0();
    }
}


// ************************************************************************* //
