/*--------------------------------*- C++ -*----------------------------------*\
| =========                 |                                                 |
| \\      /  F ield         | OpenFOAM: The Open Source CFD Toolbox           |
|  \\    /   O peration     | Version:  2206                                  |
|   \\  /    A nd           | Website:  www.openfoam.com                      |
|    \\/     M anipulation  |                                                 |
\*---------------------------------------------------------------------------*/
FoamFile
{
    version     2.0;
    format      ascii;
    arch        "LSB;label=32;scalar=64";
    class       volVectorField;
    location    "92";
    object      U;
}
// * * * * * * * * * * * * * * * * * * * * * * * * * * * * * * * * * * * * * //

dimensions      [0 1 -1 0 0 0 0];

internalField   nonuniform List<vector> 
918
(
(0.98516 -0.000508491 0)
(0.00501865 2.96624 0)
(0.00873312 0.877483 0)
(0.979705 0.00214494 0)
(-0.012589 2.0618 3.76949e-20)
(-0.00705328 2.9488 -2.43055e-18)
(0.824034 1.17057 4.49356e-19)
(0.10238 0.0785497 -1.45535e-20)
(0.999909 -0.00027543 0)
(0.0660754 0.74159 0)
(0.0199686 0.480009 0)
(0.731834 0.00714016 0)
(0.0111298 2.93038 0)
(0.0025705 2.79543 0)
(-0.0180766 3.14491 7.80754e-19)
(-0.0209266 1.91958 1.21933e-20)
(0.286822 0.062252 1.02439e-18)
(0.190023 1.14748 3.16004e-19)
(0.962709 0.00501238 0)
(0.00712992 0.410043 0)
(-0.00441558 0.0158162 -6.6875e-19)
(1.00197 -0.00497406 0)
(1.00023 -0.00978297 0)
(0.975741 -0.00643827 0)
(0.598066 0.0311806 0)
(0.0137602 2.64293 0)
(-0.0148552 2.91 8.91513e-19)
(0.0156992 0.92052 0)
(-0.0210693 1.18424 0)
(0.0182115 0.904961 0)
(-0.0160367 2.58478 0)
(-0.00153786 2.11602 -3.01057e-20)
(-0.011395 1.899 0)
(-0.0205948 2.98761 -8.72511e-23)
(-0.0166783 3.00528 1.88875e-18)
(0.00209749 3.00016 0)
(0.871485 -0.00966011 0)
(0.399749 0.927953 1.83394e-19)
(0.810894 1.18396 -5.12103e-19)
(0.962092 1.03065 5.59639e-19)
(0.678221 1.27586 -1.04748e-19)
(0.677803 1.24981 6.00075e-19)
(0.131493 0.119688 1.42619e-20)
(0.140656 0.0600338 0)
(1.16826 0.567215 0)
(0.0958366 0.0875021 6.39213e-20)
(0.0702485 0.0532207 -6.66821e-20)
(0.919932 -0.00745767 0)
(1.00027 0.000163021 0)
(0.999909 0.000340099 0)
(1.00363 -0.00775679 0)
(1.00096 -0.000916817 0)
(1.00017 3.85623e-05 0)
(0.072622 1.8261 -7.72469e-19)
(0.0330428 0.944968 0)
(0.0986708 0.821361 0)
(0.0152341 0.892633 0)
(0.0413076 0.659413 0)
(0.0072659 2.01626 0)
(0.0025547 0.770201 0)
(0.0194317 0.504093 0)
(-0.00202597 0.758941 0)
(0.0145487 0.458509 0)
(0.842249 -0.0156571 0)
(0.842383 0.0272071 0)
(0.757727 0.00399882 0)
(0.800723 0.0294753 0)
(0.700853 0.019177 0)
(0.0146772 3.00041 9.00414e-19)
(0.0114759 3.00814 0)
(0.00609495 3.00272 0)
(0.0135398 2.99739 1.02061e-23)
(0.00794872 2.95848 -1.33824e-18)
(0.0145012 2.982 0)
(0.0109077 2.90355 0)
(0.0240719 2.93082 2.03645e-24)
(0.00479511 2.82527 0)
(0.0303447 2.9168 0)
(-0.00464519 2.7458 0)
(0.302956 3.53518 0)
(-0.131472 3.61526 0)
(0.136389 3.23469 -7.26553e-19)
(-0.0143051 2.97499 0)
(-0.028425 1.98749 0)
(-0.00711682 2.17036 -1.20262e-20)
(-0.014744 1.92808 6.89745e-21)
(0.337231 0.137284 -3.55643e-19)
(0.31741 0.0374882 -3.45691e-19)
(0.291159 0.139921 -1.06533e-18)
(0.250683 0.0673632 -6.9201e-19)
(0.229959 0.986559 0)
(0.273504 1.29708 -3.6798e-19)
(0.368772 1.23322 6.14344e-19)
(0.98742 0.00858307 0)
(0.941841 0.00579989 0)
(1.0003 0.000581802 0)
(1.00286 0.0093105 0)
(1.00301 0.00847614 -2.76924e-18)
(0.991906 0.00969326 2.09123e-18)
(-0.0123695 0.747291 0)
(0.0125364 0.418771 0)
(-0.0565841 1.00842 0)
(-0.0331678 0.798605 0)
(0.000564025 0.413629 0)
(-0.0943616 0.0867335 2.07594e-19)
(0.0426801 0.0622215 0)
(0.993557 -0.00836833 0)
(0.954476 -0.00653438 0)
(0.743516 0.0301737 0)
(0.677909 0.0286713 0)
(0.660587 0.026389 0)
(0.973088 -0.00704513 0)
(0.585284 0.0740412 0)
(0.458355 -0.0011443 1.55289e-18)
(-0.0374062 2.86089 6.52611e-19)
(0.0407193 2.9102 0)
(0.0534061 2.88656 0)
(-0.00475586 2.70156 0)
(-0.0131147 2.98522 8.42768e-19)
(-0.017763 2.895 0)
(-0.0154001 2.98805 -2.61601e-18)
(-0.0132435 2.92517 8.9617e-19)
(-0.0387204 1.35467 0)
(-0.00858905 1.3867 0)
(-0.00740257 2.1354 5.82486e-22)
(-0.0065193 2.09691 0)
(-0.0233038 1.90687 0)
(0.938718 -0.00734925 0)
(0.857691 -0.00997153 0)
(0.862554 0.00568217 0)
(0.949682 -0.0077829 0)
(0.88415 -0.00820166 0)
(0.510659 1.12048 -2.3133e-19)
(0.559959 1.17155 0)
(0.364626 0.872781 3.39872e-20)
(0.307818 0.731738 0)
(0.924532 1.06651 -1.54429e-19)
(1.04419 0.876076 3.15657e-19)
(0.361468 1.35987 0)
(0.529972 1.33148 0)
(0.551006 1.27018 0)
(0.121559 0.184057 -3.04265e-19)
(0.161836 0.115865 0)
(0.173812 0.100207 1.90453e-19)
(1.01477 0.930279 0)
(1.0891 0.783374 0)
(1.11454 0.72509 -2.51713e-19)
(1.1476 0.62677 0)
(1.19739 0.409413 5.79433e-20)
(0.957817 -0.00867924 0)
(0.962548 -0.0100188 0)
(0.901814 -0.00798932 0)
(0.984213 -0.00913925 0)
(0.974729 -0.00932085 0)
(0.937156 -0.00637536 0)
(1.00019 0.00234122 0)
(1.0009 0.00141831 0)
(0.999909 0.000856094 0)
(0.0355417 2.07115 4.28021e-19)
(0.118357 1.76918 0)
(0.018195 2.18451 6.58073e-19)
(0.0458719 1.88034 -5.48299e-19)
(0.107248 1.15052 -2.58761e-19)
(0.0501412 1.02669 0)
(0.144429 0.986976 0)
(0.00872473 0.846157 0)
(0.0216803 0.594152 0)
(-0.000784966 2.24107 -7.89057e-22)
(0.0162178 2.01989 0)
(-0.00166841 2.24403 -2.62024e-20)
(0.00870795 2.02627 3.89839e-20)
(0.00570035 0.815021 0)
(0.0047663 0.789285 0)
(0.0162937 0.543954 0)
(-0.00543778 0.749279 0)
(0.00745234 0.440255 0)
(0.938943 0.00988954 0)
(0.851105 -0.0145949 0)
(0.927967 0.000513715 0)
(0.842955 -0.0128721 0)
(0.80934 0.0012123 0)
(0.899278 0.0208608 0)
(0.8753 0.0244503 0)
(0.783172 0.00125257 0)
(0.00556176 3.06476 -8.37112e-21)
(0.0167414 3.05772 0)
(0.0146418 2.96899 0)
(0.00864963 2.87617 0)
(0.917208 3.94492 0)
(1.22953 3.27897 9.20835e-19)
(0.0682615 3.06751 0)
(-0.0297839 2.9013 0)
(-0.0116807 1.4102 0)
(-0.0338619 1.70262 0)
(-0.0205889 1.54124 0)
(-0.0314251 2.54441 -9.355e-21)
(-0.0162087 2.23938 0)
(-0.0219734 2.38518 0)
(-0.000673546 1.95472 8.66297e-22)
(-0.00362444 2.2409 -1.10523e-20)
(-0.00550979 2.2053 -7.1952e-21)
(-0.00856137 1.93955 0)
(0.387116 0.120912 5.43867e-19)
(0.367093 0.0234819 -5.33704e-19)
(0.258078 1.58425 0)
(0.278391 0.759777 -3.16448e-19)
(0.176731 1.6717 -1.04835e-18)
(0.225469 1.22174 1.05061e-18)
(0.901902 0.00620577 0)
(0.967319 0.0112184 0)
(0.974507 0.0108403 0)
(0.923247 0.00632784 0)
(-0.00901144 0.7445 0)
(-0.00981892 0.742122 0)
(0.00872319 0.422364 0)
(0.0834228 0.0663758 5.89832e-19)
(0.0802327 0.0381511 -6.91506e-19)
(0.0442708 0.0464255 0)
(1.10243 0.0872843 2.74109e-20)
(1.08438 0.0400777 0)
(1.01545 0.0405052 0)
(0.908836 -0.00494732 0)
(0.439732 0.103645 0)
(0.498908 0.087135 -2.48231e-18)
(0.410623 0.017163 9.28739e-19)
(0.00847737 2.98034 7.02216e-19)
(-0.0331144 2.86465 4.58077e-20)
(0.0035989 3.05029 -1.77397e-20)
(0.0202467 3.0433 6.31185e-19)
(-0.0149948 2.99659 2.94471e-20)
(-0.0129522 2.9495 -1.18476e-22)
(-0.0172573 3.01189 -5.45538e-19)
(0.014924 3.0236 3.95089e-19)
(0.00743271 3.03689 -6.25366e-19)
(0.934268 -0.00113636 0)
(0.939653 -0.00314181 0)
(0.846274 -0.00945832 0)
(0.956361 0.0120985 0)
(0.942366 0.0135332 0)
(0.88128 0.00565681 0)
(0.916324 0.0173644 0)
(0.925422 0.0153806 0)
(0.837078 0.00300757 0)
(0.712986 1.39714 3.39275e-20)
(0.746381 1.50571 0)
(0.178798 0.310058 7.08469e-20)
(0.229828 0.667383 5.69627e-19)
(0.261308 0.716405 -3.32973e-19)
(0.260508 0.514023 6.63293e-19)
(0.347433 0.812563 1.60065e-18)
(0.141407 0.230685 3.77596e-19)
(0.250311 0.141213 7.32116e-19)
(0.212208 0.131368 1.89598e-19)
(0.212868 0.0809323 3.58888e-19)
(1.18628 0.467633 6.48176e-20)
(1.20064 0.25898 5.95547e-20)
(0.0104043 2.23336 2.53032e-19)
(0.0402868 1.94879 0)
(0.971995 0.0296864 0)
(0.944174 0.0140843 0)
(0.870266 -0.0177104 0)
(0.0113092 3.07427 0)
(0.0195854 2.944 1.15201e-18)
(0.0164046 2.9563 0)
(0.00641919 2.85064 -1.14288e-18)
(0.00627892 3.09068 2.79168e-19)
(0.00721877 3.08263 0)
(0.779011 1.80662 -1.56117e-19)
(1.23728 2.48096 3.94432e-19)
(0.760982 1.94584 -1.21662e-18)
(0.0195147 2.98005 -6.03565e-19)
(0.0347862 2.99833 0)
(-0.0346321 2.87607 0)
(-0.00381065 2.22396 -1.32464e-20)
(-0.00308836 2.24506 1.82797e-20)
(0.00202447 1.98906 -7.34016e-21)
(0.27826 1.39422 1.02639e-18)
(0.240497 0.556108 -7.03623e-19)
(0.0636896 1.99612 7.61873e-19)
(0.134879 1.88238 -9.09924e-19)
(0.179926 1.51258 9.53446e-20)
(0.0015427 3.11886 -1.73542e-18)
(0.0152642 3.11825 1.86585e-18)
(-0.00916131 2.98113 7.72182e-19)
(-0.00395778 2.97736 -7.27811e-19)
(-0.0209075 2.88088 -7.8645e-19)
(0.0085187 3.10004 -2.0745e-18)
(0.00227938 3.10578 2.03103e-18)
(0.283336 0.6946 0)
(0.248797 0.682823 -1.18629e-18)
(0.095437 0.223666 5.26532e-19)
(0.358628 0.940404 1.11761e-18)
(0.196504 0.277306 -1.72326e-18)
(1.19061 0.176576 6.3733e-20)
(1.20094 0.314036 0)
(1.17898 0.123798 -6.62997e-21)
(0.00169197 2.25244 -1.44909e-21)
(0.0050904 2.24353 0)
(0.0247006 1.98482 0)
(0.339625 1.3032 -3.68319e-19)
(0.375458 1.15237 -8.01917e-19)
(0.211268 0.380132 1.43074e-18)
(1.00588 -0.0108218 0)
(1.00767 -0.00762974 5.10856e-19)
(-0.0327664 1.3361 0)
(-0.0447855 1.33887 0)
(1.00221 0.0035174 1.81291e-21)
(1.00366 0.00947419 1.04312e-18)
(-0.0200156 2.52943 1.18573e-20)
(-0.0248305 2.572 0)
(0.033378 3.17617 3.96649e-19)
(0.387757 3.47979 0)
(1.17947 0.669134 -5.71709e-20)
(1.01282 0.0131542 -2.13192e-21)
(1.02137 -0.0102588 0)
(1.0017 0.000138282 8.1149e-23)
(0.113219 1.37386 0)
(0.143211 2.56253 0)
(0.0359152 1.31588 0)
(0.000728172 2.61475 2.6286e-20)
(-0.0204946 2.57229 -1.2722e-22)
(0.999627 0.0311363 2.52105e-21)
(1.06335 0.0049463 0)
(1.09802 0.0256387 0)
(-0.0321254 1.74651 0)
(-0.0183759 2.5735 0)
(-0.0052412 1.32646 0)
(0.311907 1.48704 -1.65851e-19)
(1.01131 -0.00960604 0)
(1.0094 -0.0149133 0)
(1.00237 0.000764455 6.52923e-19)
(1.00547 -0.00479276 -7.67355e-19)
(1.00118 -0.00096443 0)
(-0.0195621 1.47754 0)
(-0.00732027 1.39187 0)
(-0.011558 1.43575 0)
(-0.0104443 1.31293 0)
(-0.0250148 1.30101 0)
(-0.0128203 1.28558 0)
(1.03512 -0.00599577 0)
(1.01979 0.0161687 -9.15747e-22)
(0.825641 1.27929 2.60306e-19)
(1.00223 0.000330899 -6.50289e-19)
(1.00406 0.00526743 7.61431e-19)
(1.00118 0.00208042 0)
(1.01269 0.0103972 6.47404e-19)
(1.00797 0.0083222 -7.84359e-19)
(1.00855 0.0146848 0)
(-0.0238612 2.60083 0)
(-0.0263597 2.57988 -2.22431e-20)
(-0.0233656 2.59423 1.56911e-20)
(1.24003 0.270483 5.86748e-19)
(1.1641 0.0880152 0)
(0.0390669 3.07838 -8.91243e-19)
(0.0647928 2.85716 -6.47677e-20)
(0.136126 3.19193 1.3573e-18)
(0.131685 3.21909 -1.89925e-19)
(0.131178 3.2288 0)
(0.019626 3.13726 2.29919e-19)
(0.0733732 3.15985 8.78887e-19)
(0.0663597 3.18461 -4.33483e-19)
(0.0219792 3.12996 0)
(0.549568 0.279939 0)
(0.481811 0.298926 0)
(1.15217 0.705623 1.2952e-19)
(1.14487 0.827424 -1.12679e-19)
(1.20741 0.591974 0)
(1.23445 0.525223 0)
(1.016 0.0134122 -1.2067e-18)
(1.01492 0.0142968 1.51505e-18)
(1.02543 -0.00978031 0)
(1.02349 -0.0118296 0)
(1.00643 0.00266947 0)
(1.01042 0.00377816 0)
(1.00458 0.00188187 0)
(1.00977 0.00627958 0)
(1.0078 0.00597162 0)
(1.0045 0.00474189 0)
(0.101861 1.37257 0)
(0.0990092 1.33408 0)
(0.132469 1.40925 0)
(0.150153 1.41316 0)
(0.145344 2.58768 0)
(0.184699 2.65843 -4.23233e-19)
(0.101737 2.6426 0)
(0.0854397 2.64575 1.98496e-19)
(0.0393279 2.66912 -1.47245e-19)
(0.0235709 1.3339 0)
(0.0335385 1.24852 0)
(0.0256038 1.34455 0)
(0.0470334 1.26958 0)
(0.00505911 1.98034 5.74177e-21)
(-0.0194148 2.6 -2.34667e-20)
(-0.00721313 2.65599 1.04174e-20)
(-0.017104 2.67606 0)
(-0.0224886 2.60572 5.42874e-21)
(-0.0225349 2.60077 1.96049e-20)
(0.0137872 1.97826 -7.05117e-22)
(-0.00693182 2.38604 3.14806e-20)
(-0.0122976 2.40942 -1.18154e-20)
(1.01184 0.0400229 1.22135e-18)
(1.00546 0.0212145 -1.52066e-18)
(1.00402 0.0472749 -1.24434e-18)
(0.978728 0.0378488 1.56587e-18)
(1.06455 0.00873932 0)
(1.04964 -0.00810235 0)
(1.09514 0.0356644 0)
(1.07475 0.0133279 0)
(1.07256 0.00110502 0)
(1.14108 0.0848245 0)
(1.11265 0.0455153 0)
(1.11691 0.0331682 0)
(-0.0268204 2.424 1.83805e-21)
(-0.0162343 2.01448 0)
(-0.0191684 2.21297 0)
(-0.0203563 2.594 -1.36462e-20)
(-0.0173975 2.60418 2.94204e-22)
(0.00202663 1.59038 -4.42415e-20)
(-0.0102211 1.51794 4.51137e-20)
(-0.0184825 1.4067 0)
(-0.0228901 1.41408 0)
(-0.0307332 1.40829 0)
(-0.00172612 1.32848 0)
(0.0160791 1.2427 0)
(0.388348 1.50453 2.69145e-19)
(0.43181 1.50512 1.43748e-19)
(0.596534 2.43824 -2.40974e-19)
(0.396845 2.53582 7.08862e-19)
(0.348139 2.04581 7.28078e-20)
(1.0211 -0.00808464 0)
(1.01552 -0.00972769 0)
(1.01493 -0.0154951 0)
(1.00741 -0.00104335 0)
(1.00493 -0.000897258 0)
(1.00779 -0.00466705 0)
(1.00928 -0.00357708 0)
(1.01424 -0.00433601 0)
(1.02051 0.0166681 1.18235e-18)
(1.01751 0.0158535 -1.51514e-18)
(1.02081 0.0189655 -1.19155e-18)
(1.01823 0.0175208 1.49366e-18)
(0.788918 1.32952 0)
(0.723854 1.38113 2.44517e-19)
(0.902133 1.22953 9.70955e-20)
(0.94788 1.17535 -1.2922e-19)
(1.15106 2.59265 2.93493e-19)
(0.763572 0.123624 6.04733e-19)
(1.16462 0.110952 0)
(1.2145 0.19699 -4.72396e-19)
(1.20212 0.157155 -2.01492e-20)
(1.00574 0.159288 0)
(0.125071 2.96014 5.18427e-19)
(0.100974 2.86561 -1.12623e-18)
(0.00735863 2.378 7.49989e-19)
(0.109966 -0.182889 -3.02072e-19)
(0.33271 3.41031 -2.17302e-19)
(0.188376 3.30656 0)
(0.232605 3.34569 2.83007e-19)
(0.235647 3.03112 -1.74053e-18)
(0.32815 3.18794 0)
(0.006138 3.12107 4.49743e-20)
(0.0154542 3.12985 -5.31374e-19)
(0.0142149 3.12594 7.82072e-19)
(0.0344562 3.13992 0)
(0.0329603 3.15004 0)
(1.20491 2.58944 0)
(0.550748 0.795921 -5.29089e-19)
(1.07147 1.00017 -9.40541e-21)
(1.00746 1.08415 0)
(0.861035 0.978724 -1.10782e-19)
(1.09878 0.900822 2.78745e-20)
(0.255648 0.304656 -8.05334e-19)
(0.637038 0.325708 -1.54379e-20)
(0.521707 0.219183 4.07972e-19)
(0.500321 0.336544 2.90737e-20)
(0.380919 0.259439 -1.16369e-18)
(0.587967 0.325913 0)
(0.70513 0.433174 6.65123e-19)
(0.70242 0.433487 0)
(0.543957 0.341211 0)
(0.454257 0.237194 0)
(0.833541 0.633453 4.09099e-19)
(1.24148 0.292977 -4.93292e-19)
(1.24233 0.433057 0)
(1.25034 0.372999 0)
(0.66958 0.195897 6.25258e-19)
(0.877489 0.564252 -3.72787e-19)
(0.776745 0.542676 6.65843e-19)
(0.963287 0.453622 -7.37943e-19)
(1.01923 0.0150708 8.12656e-19)
(1.01752 0.0144155 -8.16281e-19)
(1.01575 0.0154875 0)
(1.03659 -0.00553464 0)
(1.02998 -0.00832711 -7.64441e-19)
(1.02803 -0.0119251 7.56847e-19)
(1.02491 0.010706 0)
(1.0234 0.0144539 0)
(1.01142 0.00420747 0)
(1.01417 0.0092282 0)
(1.01518 0.00423929 0)
(1.01429 0.00294771 0)
(0.0728704 1.35592 0)
(0.0802819 1.30021 0)
(0.149347 1.39133 5.07561e-21)
(0.282707 1.48547 8.81068e-20)
(0.17754 1.45612 1.85138e-19)
(0.209711 1.46135 -3.01904e-19)
(0.177933 1.41712 0)
(0.136575 1.5997 -7.42781e-20)
(0.120177 1.57979 0)
(0.343838 1.99417 -1.05879e-19)
(0.340444 2.33143 6.15788e-19)
(0.196413 1.46776 6.47461e-20)
(0.269958 1.40274 2.18727e-20)
(0.203247 1.39589 -1.7662e-20)
(0.279923 1.34537 -1.08573e-19)
(0.243209 1.5781 0)
(0.269704 1.61449 1.16349e-19)
(0.0313717 2.25249 -2.95358e-20)
(0.0442875 2.65804 0)
(0.0669933 2.38848 1.37977e-19)
(0.0637903 2.409 0)
(0.0700257 2.65932 -2.19972e-19)
(0.0497302 2.68835 0)
(0.0308516 1.45277 3.6248e-20)
(0.0371275 1.49897 0)
(0.0353284 1.41728 0)
(0.0309967 1.42391 -4.09059e-20)
(0.00153722 2.64212 -1.64915e-20)
(0.0303823 2.6875 1.65206e-19)
(0.0111749 2.71293 1.15571e-21)
(0.00691658 1.84038 -9.2802e-21)
(-0.000289425 1.69479 -4.90246e-21)
(0.0200341 1.30993 0)
(0.0309453 1.2227 0)
(0.0463157 1.59743 -2.71909e-20)
(0.0362541 1.47867 -3.32471e-20)
(0.0398886 1.5411 4.15262e-20)
(0.041457 1.6207 0)
(-0.0299681 2.26525 1.07368e-19)
(-0.0309511 2.54071 -4.46425e-20)
(-0.0167985 2.43909 5.32102e-21)
(-0.000737578 1.85564 1.12462e-20)
(-0.0254958 2.4914 4.80818e-21)
(-0.0196915 2.43597 -7.8958e-21)
(1.01893 0.0223729 -8.10396e-19)
(1.01554 0.0287364 8.13535e-19)
(1.01288 0.0183828 0)
(1.00904 0.0715814 1.14036e-18)
(0.99161 0.062092 -1.2726e-18)
(0.950847 0.0561281 1.4228e-18)
(1.01249 0.112105 -1.51767e-19)
(1.04304 -0.00550073 0)
(1.05151 -0.00105606 7.29087e-19)
(1.03935 -0.00966926 -7.30599e-19)
(1.07231 0.0433678 -4.33774e-20)
(1.06523 0.0244721 3.74012e-19)
(1.06318 0.0577401 0)
(1.05415 0.0511051 -1.34554e-19)
(1.03215 0.0424751 0)
(1.02659 0.038582 0)
(1.0279 0.0138678 0)
(1.02391 0.016677 0)
(1.04027 0.0333598 2.7708e-19)
(1.03892 0.0272159 -6.12479e-19)
(1.05143 0.0349616 -2.93652e-19)
(1.04838 0.0350593 -3.23421e-19)
(1.07177 0.0661251 6.31357e-19)
(1.0974 0.0539092 0)
(1.10696 0.0983816 0)
(-0.025673 2.26981 6.03186e-20)
(-0.0259873 2.0199 1.70776e-21)
(-0.0219649 2.02726 0)
(-0.0269753 2.43817 -6.00293e-20)
(-0.0229385 2.39485 -3.46541e-21)
(-0.0335148 2.46467 6.50949e-21)
(-0.0201672 2.6133 -1.72199e-20)
(-0.0231217 2.55484 4.98467e-22)
(-0.021717 2.50689 -5.12999e-21)
(-0.0154934 2.60713 1.33819e-20)
(-0.0204033 2.60919 -1.47558e-20)
(-0.00651382 1.51955 -9.75018e-22)
(0.00243437 1.63683 -4.28034e-20)
(0.373487 1.4532 -1.12937e-19)
(0.373449 1.38561 4.30451e-20)
(0.664651 1.43087 -2.36481e-19)
(0.530701 1.4978 -1.41081e-19)
(0.588631 1.46393 0)
(0.592294 2.4154 2.07551e-19)
(0.660916 2.41152 3.38132e-19)
(0.410432 2.50458 8.81953e-20)
(0.401731 2.52852 -6.10924e-19)
(0.509126 2.46899 6.17129e-19)
(0.552371 2.45205 0)
(0.486773 2.51003 -5.59946e-19)
(0.247842 2.58207 1.14347e-18)
(0.354089 2.55398 -7.67189e-20)
(0.283224 2.64376 -1.58715e-18)
(0.947567 2.36816 7.32778e-19)
(0.837411 2.3739 0)
(1.01109 0.000562652 2.64902e-20)
(1.01538 -0.00533351 -2.1486e-20)
(1.0177 -0.00342964 -3.92435e-19)
(1.01507 -0.000792602 3.94585e-19)
(1.01249 0.00131151 0)
(0.652191 1.29427 0)
(0.676303 1.18816 0)
(0.790789 1.10778 0)
(0.669574 1.15126 0)
(1.18136 2.6061 6.03359e-20)
(1.06896 2.35305 0)
(0.831375 2.15518 3.9752e-21)
(0.821574 2.42245 0)
(0.920587 2.51651 -4.2852e-19)
(0.95538 2.47263 2.85003e-19)
(0.795655 0.184082 0)
(0.736024 0.157035 1.63957e-19)
(0.905259 0.153327 9.56148e-19)
(0.821221 0.156028 -3.57405e-19)
(0.774316 0.0903108 -1.10562e-18)
(1.08317 0.244276 -9.00621e-19)
(0.99964 0.308649 -1.80274e-20)
(0.926562 0.31282 8.65646e-19)
(1.00675 0.237865 7.2795e-19)
(0.947138 0.201942 -1.26498e-18)
(0.908005 0.20639 1.58227e-19)
(0.946677 0.273677 -3.35759e-19)
(0.924291 0.232572 0)
(0.995401 0.198502 6.23803e-19)
(1.04726 0.196968 0)
(1.04506 0.225669 0)
(1.10827 0.122934 2.92714e-19)
(1.07243 0.18321 -1.52055e-20)
(1.0766 0.244224 -1.59224e-19)
(1.102 0.209891 0)
(1.02091 0.0469201 6.24988e-19)
(1.04033 0.0601066 7.79887e-19)
(1.03368 0.0453578 -6.21098e-19)
(1.04245 0.0680611 -5.23249e-19)
(1.01698 0.0764149 -8.03446e-19)
(0.983575 0.161597 0)
(0.988838 0.106687 0)
(0.965931 0.0771557 -5.0619e-19)
(0.903701 0.0980902 2.0145e-19)
(1.0404 0.109107 7.22752e-19)
(1.06963 0.126318 -8.44155e-19)
(1.07687 0.159061 7.53731e-19)
(1.03206 0.153797 0)
(1.07514 0.113649 0)
(1.05412 0.0943057 -3.45959e-19)
(1.04469 0.100058 -5.89759e-19)
(0.578113 1.04817 1.45901e-19)
(0.600597 1.36986 -4.76174e-20)
(1.15159 2.72267 -2.3607e-19)
(1.21664 3.06517 4.10701e-21)
(1.24272 2.70485 -1.36407e-19)
(1.27035 2.68762 -2.48511e-20)
(1.1968 2.32694 -1.14144e-20)
(1.20447 2.96875 -1.01456e-19)
(1.22508 2.93432 2.46714e-19)
(1.20629 3.21731 -1.38855e-19)
(1.36511 2.94713 1.91778e-19)
(1.35264 2.86478 0)
(0.573774 0.806396 -5.12191e-20)
(0.0943019 1.21252 5.6317e-19)
(0.566239 0.312538 5.31576e-19)
(0.399632 0.0569762 5.68274e-19)
(0.436226 0.307315 6.60411e-19)
(0.539147 0.426511 -1.07448e-18)
(0.543141 0.42028 8.79123e-19)
(0.43725 0.27926 -3.31593e-19)
(0.277494 0.205083 7.44614e-19)
(0.699234 0.271825 -3.61649e-19)
(0.653637 0.293719 0)
(0.583538 0.20871 6.20435e-21)
(0.741753 0.517087 3.6023e-19)
(0.725056 0.488549 -1.3092e-18)
(0.61972 0.450349 8.74748e-21)
(0.608948 0.440061 0)
(0.699926 0.720543 3.9825e-19)
(0.862001 0.784961 3.95035e-19)
(0.78698 0.868403 -4.62351e-19)
(0.907647 0.822158 -1.54186e-19)
(0.939032 0.867463 -3.72439e-20)
(0.946047 0.867205 3.81397e-20)
(0.872695 0.667651 -6.77925e-19)
(0.95247 0.71978 1.43151e-19)
(1.01303 0.734449 0)
(1.00356 0.710622 -1.93451e-19)
(1.02964 0.349671 2.13203e-19)
(1.15144 0.309808 2.90319e-19)
(1.07121 0.282052 3.68073e-19)
(1.02042 0.382707 -4.3358e-19)
(1.06983 0.445138 0)
(1.12626 0.424964 0)
(0.920779 0.386083 1.28752e-21)
(0.835138 0.320085 0)
(0.885957 0.319594 4.08557e-19)
(0.909902 0.320974 -8.39918e-21)
(0.958456 0.457457 2.05541e-18)
(0.920362 0.51367 5.27412e-19)
(0.924024 0.480088 -5.62867e-19)
(0.837367 0.46894 6.04913e-19)
(0.820684 0.463842 3.62709e-19)
(0.788852 0.446428 -3.55963e-19)
(1.02744 -0.000135668 6.53864e-19)
(1.02007 0.00015899 0)
(1.01858 0.00108267 4.26342e-19)
(1.02181 -0.00143988 -9.65818e-19)
(1.0224 0.00463015 4.69194e-19)
(1.02033 0.0116834 -9.82541e-19)
(1.02122 0.0110828 0)
(1.02044 0.0113253 -2.04777e-19)
(1.01595 0.00794189 5.13714e-19)
(1.01658 0.0107579 -2.56392e-19)
(1.01729 0.0101177 1.88756e-19)
(0.0366525 1.33209 0)
(0.0437421 1.3884 0)
(0.0532109 1.33232 0)
(0.0606529 1.27714 0)
(0.0763017 1.40564 -4.31427e-20)
(0.0866676 1.37136 1.9867e-20)
(0.115105 1.54982 -1.63273e-20)
(0.10866 1.39453 -3.26984e-21)
(0.041671 1.48373 1.81884e-20)
(0.0453156 1.47745 -1.39889e-20)
(0.0692722 1.39326 -1.12296e-20)
(0.0618179 1.39395 4.34214e-20)
(0.0563669 1.37107 6.50317e-21)
(0.0467573 1.39493 3.65852e-21)
(0.107661 2.35563 -1.52469e-19)
(0.0963769 2.40478 0)
(0.16942 2.02988 1.10008e-19)
(0.114973 1.70216 4.12444e-20)
(0.234775 2.02805 -9.10492e-20)
(0.198704 2.41762 0)
(0.261493 2.36753 -6.1098e-19)
(0.301669 2.36521 4.31468e-19)
(0.228484 1.98746 -2.53708e-19)
(0.155085 2.14574 1.71648e-19)
(0.141326 2.25146 0)
(0.0194576 1.87604 6.03959e-21)
(0.00176599 2.38061 -3.09832e-20)
(0.00709837 2.13889 0)
(0.0122308 2.44493 -1.36776e-20)
(0.0300204 2.28744 8.74144e-21)
(0.0192423 1.43183 -8.03686e-21)
(0.0180625 1.41416 1.36903e-19)
(0.0162153 1.42307 -4.5232e-20)
(0.0241519 1.42894 -3.80572e-20)
(0.0289435 1.45669 0)
(0.0117844 1.40737 0)
(0.00550569 1.31022 -6.27057e-20)
(0.00839209 1.40149 1.81943e-20)
(0.014148 1.39876 0)
(0.013959 1.29985 -4.59112e-20)
(0.0273972 1.21359 9.41556e-20)
(1.04086 0.0121576 0)
(1.04711 0.00844157 -6.84246e-20)
(1.03893 0.0227207 -4.93523e-19)
(1.04861 0.021401 0)
(1.05247 0.0211896 0)
(1.03656 0.0124375 -6.81877e-21)
(1.03124 0.0122816 7.93132e-19)
(1.03178 0.017324 9.61941e-19)
(1.02557 0.0212764 0)
(1.02251 0.0218799 0)
(1.03542 0.0263284 4.92335e-19)
(1.02589 0.0281013 0)
(1.02405 0.0277167 0)
(-0.0173063 2.02285 0)
(-0.000619455 1.66511 -3.96019e-21)
(-0.00473479 1.7678 -3.21223e-20)
(-0.000478417 1.40885 0)
(-0.00462983 1.57203 -2.42407e-20)
(-0.010757 1.486 1.50426e-20)
(-0.00839642 1.42692 0)
(0.386586 1.63063 0)
(0.376495 1.31097 -8.3388e-20)
(0.299573 1.33899 0)
(0.427999 1.30933 1.93887e-20)
(0.479213 1.47542 0)
(0.459587 1.41938 2.01793e-20)
(1.0356 2.66836 -1.55039e-20)
(0.967747 2.39651 -9.20754e-19)
(0.920858 2.18555 1.03083e-18)
(0.851535 2.36565 2.43396e-19)
(0.847066 2.47727 0)
(0.916599 2.47333 0)
(0.930856 2.36157 0)
(0.909873 2.35132 -9.50473e-19)
(0.684774 2.44025 -3.99801e-19)
(0.798716 2.42976 -9.86281e-20)
(0.808433 2.40397 7.49064e-20)
(0.694565 2.38442 0)
(0.799924 2.37967 0)
(0.757921 2.39332 -3.70019e-19)
(0.766057 2.46699 0)
(0.638126 1.0954 0)
(0.479206 0.891912 -5.30326e-19)
(0.57561 0.94253 -3.34626e-20)
(0.517826 1.02648 0)
(0.518277 0.966464 7.92753e-19)
(0.807309 0.890386 -1.30994e-19)
(0.815082 1.02518 0)
(0.790705 0.992232 1.87197e-19)
(0.675714 1.03602 0)
(0.676358 0.938903 0)
(1.1612 2.74571 -2.35304e-19)
(1.13856 2.80931 -1.02809e-19)
(0.926272 2.32181 1.10634e-19)
(0.894339 2.30165 -8.58944e-20)
(1.12705 2.71852 0)
(1.08126 2.68783 1.03304e-19)
(1.08606 2.47105 -3.16473e-19)
(0.980474 2.22453 -2.98654e-20)
(0.489631 1.32203 0)
(0.506349 1.05545 -1.28559e-19)
(0.580562 1.16899 0)
(0.848549 0.251578 0)
(0.756011 0.20058 0)
(0.66178 0.15466 0)
(0.839451 0.252509 -6.35514e-19)
(0.725974 0.245671 3.76538e-19)
(0.922086 0.0913484 -4.15087e-19)
(0.924341 0.133333 0)
(0.912593 0.142302 1.79361e-19)
(0.848646 0.118112 7.17071e-19)
(0.812384 0.0790745 -4.49312e-19)
(1.15075 3.34174 -7.0859e-19)
(1.20036 3.26159 0)
(1.1483 3.37115 -1.47795e-18)
(0.63739 3.53337 1.25201e-18)
(0.856811 3.10374 6.45955e-20)
(0.525353 0.780487 6.12766e-19)
(0.420336 0.778054 0)
(0.292507 0.333185 -1.47942e-19)
(0.485337 0.65088 8.58395e-19)
(0.576565 0.323636 -1.89649e-19)
(0.51582 0.463028 2.27675e-19)
(0.673314 0.519355 4.84597e-19)
(0.721791 0.561185 0)
(0.671788 0.571627 0)
(0.639282 0.529048 0)
(1.01261 0.62098 8.86605e-20)
(0.925909 0.562891 -5.13694e-19)
(0.951918 0.59399 3.87037e-19)
(0.980488 0.533815 -3.98593e-19)
(1.08994 0.500084 0)
(1.09895 0.591935 -9.69277e-20)
(0.856051 0.41933 -8.35636e-19)
(0.854064 0.40745 -1.03575e-18)
(0.783176 0.400954 6.33827e-19)
(0.792426 0.389222 -6.44279e-19)
(0.841817 0.345098 -5.23311e-19)
(0.787051 0.340826 6.39603e-19)
(1.02679 0.00620227 -4.99886e-19)
(1.02648 0.00643853 1.01782e-18)
(1.02957 0.000343687 6.33693e-19)
(1.03376 0.00123817 -7.63261e-19)
(1.03397 0.00939193 0)
(1.03024 0.0100766 -1.24176e-18)
(0.0645629 1.63828 1.92773e-20)
(0.0531682 1.59139 0)
(0.0917087 1.68734 1.30877e-19)
(0.0989329 1.66855 -1.16087e-19)
(0.0928406 1.55107 2.92123e-20)
(0.0921247 1.55295 0)
(0.0140129 1.69722 0)
(-0.00151897 1.51557 1.08378e-20)
(-6.87363e-05 1.46236 -9.74126e-21)
(-0.00675048 1.56848 5.54773e-21)
(0.00317688 1.88731 1.59212e-20)
(-0.00879098 1.94082 -3.88936e-21)
(0.495868 1.35243 -2.73127e-19)
(0.493342 1.35188 2.99418e-19)
(0.455897 1.30551 -3.77827e-20)
(0.437911 1.28032 7.68978e-21)
(0.644029 1.31311 0)
(0.558374 1.4042 9.94153e-20)
(0.574961 1.41092 -9.6786e-20)
(0.470191 1.29943 3.69018e-20)
(0.525605 1.24483 0)
(0.576386 1.20619 0)
(0.65206 2.4002 5.87276e-19)
(0.667982 2.44198 1.26513e-18)
(0.712277 2.45274 -8.71827e-19)
(0.608356 2.42654 -2.02371e-19)
(0.558927 2.51646 2.85421e-19)
(0.508367 2.49161 -7.61203e-19)
(0.976864 2.36821 -5.77237e-19)
(1.01005 2.38008 0)
(0.923993 2.16356 -6.61172e-19)
(1.05258 2.66678 0)
(1.05497 2.65333 0)
(0.590536 2.24888 -1.42849e-19)
(1.03224 3.14857 1.14855e-19)
(0.903716 3.01952 -1.62186e-20)
(0.253974 0.81703 0)
(0.275795 0.654642 -3.19958e-19)
(0.450992 0.616995 -3.24409e-19)
(0.371093 1.99219 0)
(0.457656 2.77565 -4.49706e-20)
(0.409591 2.53807 0)
(0.726511 0.670936 -8.40394e-19)
(0.809584 0.694116 1.11936e-18)
(0.829084 0.634442 -1.10563e-18)
(0.702407 0.63688 -1.0712e-19)
(0.755739 0.597082 -4.38005e-19)
(0.997074 2.7459 -8.73612e-20)
(1.03997 2.81019 -1.77201e-19)
(0.625807 2.10713 7.31122e-19)
(0.57725 1.67674 -5.19776e-19)
(0.690121 1.88065 -4.21642e-19)
(0.984024 2.43061 -1.13802e-19)
(0.991847 2.42402 3.07923e-19)
(0.642184 1.81144 2.92443e-20)
(0.435688 1.29975 1.49479e-19)
)
;

boundaryField
{
    wall-4
    {
        type            noSlip;
    }
    velocity-inlet-5
    {
        type            fixedValue;
        value           uniform (1 0 0);
    }
    velocity-inlet-6
    {
        type            fixedValue;
        value           uniform (0 3 0);
    }
    pressure-outlet-7
    {
        type            zeroGradient;
    }
    wall-8
    {
        type            noSlip;
    }
    frontAndBackPlanes
    {
        type            empty;
    }
}


// ************************************************************************* //
