/*--------------------------------*- C++ -*----------------------------------*\
| =========                 |                                                 |
| \\      /  F ield         | OpenFOAM: The Open Source CFD Toolbox           |
|  \\    /   O peration     | Version:  2206                                  |
|   \\  /    A nd           | Website:  www.openfoam.com                      |
|    \\/     M anipulation  |                                                 |
\*---------------------------------------------------------------------------*/
FoamFile
{
    version     2.0;
    format      ascii;
    arch        "LSB;label=32;scalar=64";
    class       volScalarField;
    location    "99";
    object      p;
}
// * * * * * * * * * * * * * * * * * * * * * * * * * * * * * * * * * * * * * //

dimensions      [0 2 -2 0 0 0 0];

internalField   nonuniform List<scalar> 
918
(
0.560293
1.16659
-3.6126e-05
0.559763
-0.0125961
1.13356
-0.512626
0.653564
0.540502
-0.102815
-0.0542134
0.542412
0.994378
0.760026
-1.12408
-0.0135423
0.653395
-0.380956
0.539639
-0.0772565
0.674127
0.547033
0.550057
0.540633
0.599533
0.731254
0.875716
0.0328717
0.014381
0.00853952
-0.0121043
-0.0387247
-0.0333894
1.01721
1.06829
1.091
0.508213
0.336063
-0.37798
-0.452662
-0.438075
-0.535424
0.654938
0.656188
-0.215745
0.654971
0.65244
0.527503
0.539874
0.540789
0.541794
0.540786
0.542164
0.405219
-0.104137
-0.135601
-0.0836639
-0.0766785
0.0508552
-0.0528228
-0.053585
-0.0536752
-0.0555143
0.457259
0.536925
0.533558
0.546644
0.555927
1.10614
1.07807
1.10421
1.01789
1.03436
0.97236
0.945015
0.780645
0.802853
0.745627
0.731028
-1.55103
-2.4935
-0.539164
-0.29107
-0.0109361
-0.0117796
-0.00635651
0.650865
0.652125
0.653857
0.655143
1.08024
-0.377703
-0.481524
0.539785
0.538599
0.546898
0.5476
0.543622
0.542711
-0.0657318
-0.0621903
-0.0663499
-0.0717335
-0.0700574
0.647019
0.653826
0.541159
0.53816
0.563627
0.584326
0.57398
0.279787
0.610243
0.626299
0.568085
0.725442
0.719089
0.728009
0.849361
0.813603
0.912521
0.935674
0.0205182
-0.000354793
-0.017845
-0.0209524
-0.0201123
0.504039
0.49657
0.524478
0.511653
0.514163
0.253911
0.12196
0.420162
0.444415
-0.297666
-0.366429
-0.430457
-0.45998
-0.567842
0.615544
0.657044
0.654043
-0.224966
-0.152847
-0.288137
-0.0794255
-0.142978
0.517747
0.524776
0.519765
0.535343
0.529804
0.53177
0.544153
0.541221
0.542782
0.467139
0.590262
0.331624
0.295888
-0.242122
-0.150763
-0.240172
-0.0664741
-0.0638624
0.0654606
0.0914609
0.037183
0.0250712
-0.059791
-0.0555185
-0.057449
-0.0553174
-0.0570747
0.449964
0.438678
0.469982
0.47756
0.523697
0.525116
0.529487
0.527571
0.89578
0.918207
0.925739
0.899398
-3.47361
-6.23769
0.0297636
0.164815
-0.006957
-0.0102883
0.00179051
-0.00641837
-0.000712846
-0.0023495
-0.0111994
-0.0127201
-0.0077432
-0.00649946
0.646129
0.646608
1.00361
1.01187
0.978076
0.931358
0.528075
0.530108
0.535579
0.53148
-0.0580885
-0.0604362
-0.0588512
0.652638
0.650794
0.652076
0.241031
0.150645
0.331124
0.360475
0.639979
0.629463
0.63848
0.628659
0.665175
0.943121
0.961296
0.95951
0.967801
1.01179
1.02815
0.993588
0.483418
0.493436
0.488364
0.527294
0.525212
0.526051
0.522508
0.523485
0.521636
-0.0274464
-0.404476
0.490771
0.506824
0.493543
0.494964
0.696128
0.775314
0.654903
0.655693
0.655122
-0.00937899
-0.068045
0.250853
0.216326
0.389147
0.425773
0.404586
0.867158
0.82715
0.877405
0.850622
0.811839
0.83805
-0.356253
-1.84565
-0.9702
0.511421
0.327446
0.414191
0.00653988
-0.0105466
-0.00568833
1.00434
1.07519
0.645939
0.821293
0.823194
0.698828
0.727121
0.787964
0.714637
0.748905
0.78175
0.759055
0.570818
0.503832
0.52087
0.844391
0.900012
0.11991
0.0572085
0.01346
0.110856
0.168811
0.14251
1.03493
0.95324
1.02291
0.537922
0.538648
-0.00948107
-0.0277964
0.542916
0.542974
-0.0143166
-0.00381545
0.396639
-0.831426
0.0974466
0.531532
0.521354
0.538521
-0.0886779
0.356724
-0.053479
0.0472775
-0.0117931
0.532858
0.468435
0.427413
-0.00422094
-0.0231768
-0.065603
-0.2101
0.535592
0.533896
0.537988
0.538923
0.539608
-0.0233366
-0.0198406
-0.0127004
-0.0598101
-0.0525189
-0.0677255
0.502381
0.521455
-0.169564
0.53814
0.540279
0.540096
0.533384
0.539001
0.537263
-0.0140736
-0.0182075
-0.0206415
0.220592
0.353918
0.631439
0.71616
0.603917
0.383478
0.150949
0.53787
0.599293
0.507175
0.658293
0.652152
0.651359
0.162921
0.0119168
0.172374
0.11416
0.529386
0.528125
0.519603
0.516557
0.533388
0.531497
0.536066
0.533096
0.536051
0.537426
-0.0450806
-0.0710823
-0.0811444
-0.147241
0.311732
0.571754
0.256824
0.28588
0.142191
-0.0488463
-0.0504685
-0.0508667
-0.0574468
0.000957055
-0.0275946
0.0415354
0.0408052
0.0109533
-0.0145803
-0.0102232
-0.0222947
-0.0146165
0.526143
0.526037
0.530919
0.539462
0.478123
0.481901
0.446594
0.467483
0.452618
0.390996
0.426684
0.401765
-0.00910475
-0.0022788
-0.00572572
-0.0215967
-0.017854
-0.0397517
-0.0375023
-0.0317197
-0.0287053
-0.0364344
-0.0586569
-0.0622426
-0.167689
-0.284341
0.990267
0.909301
0.144295
0.52473
0.531196
0.527952
0.532895
0.536026
0.536819
0.534519
0.531062
0.521793
0.523494
0.520024
0.520962
-0.0999074
-0.24268
-0.070715
-0.14694
0.149388
0.63116
0.365815
0.300655
0.296186
0.52585
0.895995
0.677348
0.647579
0.638026
-0.347096
0.0354433
-0.285907
0.323128
0.158342
0.634579
0.681695
0.701065
0.65099
0.605215
-0.0937091
0.559096
-0.075304
-0.022145
0.180607
0.0544613
0.638888
0.641027
0.646962
0.642889
0.652068
0.64328
0.624378
0.62633
0.642783
0.648541
0.481876
0.251261
0.201449
0.16294
0.645546
0.515935
0.56472
0.490907
0.524616
0.527216
0.525895
0.507217
0.514812
0.510327
0.516911
0.520447
0.529091
0.529574
0.52482
0.526951
-0.0517801
-0.0575784
-0.0221743
-0.132252
-0.124604
-0.1876
-0.0563638
0.0796843
0.0411464
0.240811
0.344206
0.0560986
-0.053543
-0.0263779
0.0177073
0.184089
0.212666
0.0766578
0.162752
0.156014
0.13617
0.23908
0.241645
-0.0301065
-0.0305996
-0.0347291
-0.0384694
0.0186834
0.0905317
0.0995595
-0.0110821
-0.0146224
-0.0488948
-0.0519384
-0.0203012
-0.0253344
-0.0210493
0.0068064
-0.055644
-0.023637
-0.00987273
-0.0116126
-0.0105159
-0.0153212
0.520824
0.522589
0.522805
0.531785
0.543959
0.558649
0.524172
0.500388
0.491146
0.494152
0.467057
0.4774
0.473207
0.486888
0.508155
0.516673
0.515007
0.517832
0.500159
0.501861
0.488364
0.492055
0.467058
0.447627
0.435555
-0.0463705
-0.00906058
-0.0169887
-0.0416085
-0.0127494
-0.0241167
-0.014935
0.00413016
-0.0128614
-0.0135163
-0.0232955
-0.0323292
-0.0322799
-0.0692314
0.0185534
-0.182681
-0.217068
-0.290954
0.892939
1.0168
0.811398
0.584882
0.606004
0.848893
0.932654
0.544396
0.736956
0.759695
0.58973
0.858446
0.529584
0.529177
0.526777
0.526251
0.527473
-0.0033293
0.104289
0.0997685
0.165434
0.281148
0.39139
0.326885
0.200808
0.330136
0.33261
0.623225
0.634957
0.591744
0.616068
0.61705
0.427633
0.503273
0.554916
0.515964
0.56844
0.590238
0.544029
0.577469
0.526221
0.481423
0.477516
0.427337
0.446801
0.422294
0.405517
0.520209
0.496832
0.507752
0.497872
0.51998
0.546042
0.543174
0.565959
0.580977
0.500609
0.45574
0.464979
0.495173
0.45684
0.472316
0.488139
0.239246
0.142327
0.224928
-0.059004
0.00810617
-0.00268393
-0.0522674
0.00090056
0.28451
-0.404087
-0.381016
-1.00441
0.509565
0.938504
0.556289
0.534718
0.651923
0.640237
0.644511
0.661252
0.655041
0.633922
0.641807
0.646553
0.59201
0.613287
0.627631
0.624938
0.527123
0.381603
0.381578
0.328892
0.198947
0.239408
0.434827
0.35937
0.284503
0.284549
0.458795
0.344854
0.415658
0.448034
0.379041
0.333645
0.537353
0.60304
0.596101
0.57027
0.479555
0.491046
0.516155
0.549659
0.573046
0.60784
0.516319
0.522277
0.523503
0.520976
0.518242
0.521339
0.521593
0.524169
0.524789
0.527805
0.526871
-0.0493236
-0.0359255
-0.0463043
-0.05775
-0.0138854
-0.0164161
0.0269441
0.0143382
-0.0130891
-0.00860047
-0.0292922
-0.0334357
-0.0306955
-0.0234784
0.106461
0.118854
0.103196
0.0638901
0.255408
0.384171
0.458544
0.33386
0.228831
0.252583
0.270763
-0.0103456
0.0138752
0.00153117
0.0411843
0.0339514
-0.0408624
-0.045854
-0.0435741
-0.0323966
-0.0242926
-0.0470217
-0.0556559
-0.0440108
-0.0481575
-0.0508217
-0.0574358
0.502669
0.496158
0.497753
0.491706
0.490418
0.504625
0.508929
0.510931
0.516472
0.518708
0.508757
0.514187
0.518136
-0.0170371
-0.0407536
-0.043195
-0.0380469
-0.0383282
-0.0367013
-0.039469
0.128975
0.0612745
0.0646858
0.0167204
-0.117524
-0.0589848
0.496189
0.493104
0.481032
0.725023
0.574732
0.49534
0.591429
0.697449
0.282431
0.477477
0.313758
0.891438
0.788742
0.934685
0.546317
0.252448
0.419409
0.457496
0.274664
0.353178
0.325631
0.215879
0.246114
0.286868
0.383676
0.27109
0.249407
0.00594102
0.196554
0.306166
0.288338
0.410772
0.469997
0.274318
0.192921
0.1479
0.607436
0.626706
0.639937
0.612349
0.634943
0.584543
0.576364
0.591841
0.600157
0.593596
-0.734048
-0.440341
-1.3887
-0.718025
-0.259774
0.539411
0.516581
0.772977
0.643024
0.668605
0.653745
0.618086
0.589818
0.614881
0.634912
0.340326
0.451289
0.426103
0.432723
0.335466
0.26503
0.564482
0.562134
0.595937
0.619853
0.590639
0.621425
0.514124
0.513843
0.51331
0.509548
0.507809
0.510153
0.0617551
0.0291058
0.0707011
0.0532438
0.0310352
0.0190858
-0.0187492
-0.029209
-0.0348273
-0.0335841
-0.0190095
-0.015335
0.178966
0.114775
0.035492
0.063681
0.00229291
-0.0660741
-0.0860791
0.0213565
0.117748
0.107686
0.410409
0.658544
0.479031
0.646064
0.489472
0.544847
0.469562
0.460686
0.484601
0.383442
0.464137
0.263146
-0.245927
-0.156336
0.797608
0.807784
0.581928
0.411731
0.177746
0.350429
0.541493
0.470132
0.504884
0.573163
0.559641
0.0404334
0.0942448
0.392548
0.61945
0.247908
0.238249
0.231905
0.419856
0.336361
)
;

boundaryField
{
    wall-4
    {
        type            zeroGradient;
    }
    velocity-inlet-5
    {
        type            zeroGradient;
    }
    velocity-inlet-6
    {
        type            zeroGradient;
    }
    pressure-outlet-7
    {
        type            fixedValue;
        value           uniform 0;
    }
    wall-8
    {
        type            zeroGradient;
    }
    frontAndBackPlanes
    {
        type            empty;
    }
}


// ************************************************************************* //
