/*--------------------------------*- C++ -*----------------------------------*\
| =========                 |                                                 |
| \\      /  F ield         | OpenFOAM: The Open Source CFD Toolbox           |
|  \\    /   O peration     | Version:  2206                                  |
|   \\  /    A nd           | Website:  www.openfoam.com                      |
|    \\/     M anipulation  |                                                 |
\*---------------------------------------------------------------------------*/
FoamFile
{
    version     2.0;
    format      ascii;
    arch        "LSB;label=32;scalar=64";
    class       surfaceScalarField;
    location    "99";
    object      phi;
}
// * * * * * * * * * * * * * * * * * * * * * * * * * * * * * * * * * * * * * //

dimensions      [0 3 -1 0 0 0 0];

oriented        oriented;

internalField   nonuniform List<scalar> 
1300
(
3.75095
5.62643
-3.25302
3.75095
-7.7558
5.62643
-4.4176
4.4176
-0.3551
0.3551
1.87638
1.87457
-2.70136
2.70136
-2.02571
2.02571
-2.52129
2.52129
-5.24643
5.24643
-5.06849
5.06849
4.64823
-4.64823
-6.31887
6.31887
-0.935615
0.935615
-3.70152
3.70152
3.16957
-3.16957
-1.90125
1.90125
0.0864281
-0.0864281
-0.553467
4.30442
3.19749
3.19749
-2.0059
2.0059
-4.87015
4.87015
6.21802
-6.21802
5.23241
-5.23241
-1.97939
-2.49589
1.80094
-11.4578
-5.95487
-5.95487
-8.44038
8.44038
-2.81395
2.81248
2.94647
-2.94647
-1.75988
1.75988
-4.38086
-0.0367344
-4.38086
4.38637
0.0312238
4.38637
-0.456357
0.101257
-0.456357
4.01941
-4.01941
0.24973
0.10537
0.24973
3.06541
-3.06541
-1.87712
3.75351
1.87383
-1.8719
6.17633
-1.87905
3.75362
-6.00836
6.00836
-2.94788
0.246515
-2.94788
2.48805
0.21331
2.48805
-6.84853
6.84853
-2.08533
0.0596136
-2.08533
1.97106
0.0546564
1.97106
2.88226
-2.88226
-2.62753
0.106249
-2.62753
2.39242
0.128861
2.39242
0.353511
5.27292
-5.97994
8.79242
-5.27292
0.0264856
5.20835
0.0380831
5.20835
-5.10583
0.0373432
-5.10583
5.0134
0.0550921
5.0134
4.72988
-0.0816473
4.72988
-4.76875
0.120514
-4.76875
-3.36825
-4.05552
-6.46892
0.150055
-6.46892
-1.02521
0.0895949
-1.02521
0.822978
0.112637
0.822978
-3.68542
3.68542
-4.12425
0.422731
-4.12425
3.12394
0.0456335
3.12394
1.86849
1.88247
5.61944
-5.61944
2.44987
-1.87457
-0.0266793
-1.87457
-1.97729
-3.25512
1.97729
-0.0760367
-0.163759
0.250187
-0.163759
3.15945
0.038032
3.15945
2.23512
0.157304
-2.23512
0.229221
3.28142
-3.28142
1.33427
0.671626
1.33427
-5.56413
5.56413
4.95668
0.056712
-4.95668
0.0865308
6.15605
0.0619723
6.15605
-6.19953
-0.0184961
-6.19953
2.53141
-5.0273
-2.66523
6.13707
0.181804
-6.13707
0.182197
2.91847
0.0279971
2.91847
-2.91773
2.91773
-2.98487
0.0384059
-2.98487
-2.15917
0.399291
-2.15917
1.46147
0.298411
1.46147
-4.28288
-0.0979824
-4.28288
-4.27531
0.151055
4.27531
0.111064
1.12528
-1.12528
-0.587982
0.131625
-0.587982
-4.14631
-0.136572
4.14631
-0.126897
-3.90567
-0.113742
-3.90567
-3.02464
0.0397658
3.02464
0.0407653
3.11291
0.0465412
-3.11291
0.0475076
-1.87081
3.75328
-1.88014
3.75397
-5.62931
-0.379048
-5.62931
6.31918
-0.310824
6.31918
3.34275
0.358776
-3.34275
0.394872
2.3155
0.17255
2.3155
-6.80869
-0.039843
-6.80869
6.83574
0.012788
6.83574
2.18218
0.133324
-2.18218
0.0968506
1.92435
0.0467116
1.92435
2.90303
-0.0207666
2.90303
-2.87609
-0.00617574
-2.87609
2.79006
-2.79006
2.71501
0.0750481
-2.71501
0.0874769
-11.133
11.1146
-0.0352058
-11.0978
5.17314
5.17314
4.15332
0.576566
4.15332
-4.98815
0.219406
-4.98815
2.70307
-5.36829
3.10912
-6.47737
4.65701
-16.1148
4.2828
-8.33832
6.70639
-6.70639
6.59669
0.109699
-6.59669
0.127765
-1.14375
0.118537
-1.14375
-3.08516
-0.600257
-3.08516
4.32543
-0.640014
4.32543
-3.02783
3.02783
-3.07733
0.0495011
3.07733
0.0466076
1.88492
0.0394286
-1.88492
0.0103439
0.186922
0.0628084
-0.186922
0.0231626
3.49719
-0.215761
3.49719
-3.0817
-0.199725
-3.0817
-1.24403
0.100286
1.24403
0.0902412
-5.81427
0.250139
-5.81427
-11.1908
0.0929624
-11.1527
-6.10656
-6.10656
2.33382
11.1262
-2.89389
0.0178007
2.89389
0.024582
2.97427
0.0535638
-2.97427
0.0565353
-2.85691
0.0668462
2.85691
0.060827
-2.53441
0.375237
-2.53441
-1.06249
1.06249
-1.22597
0.163473
1.22597
0.235502
1.40042
-0.275136
1.40042
0.707919
0.115059
-0.707919
0.119937
-3.8021
-0.103569
-3.8021
6.55498
-0.2358
6.55498
-2.96567
-0.116031
2.96567
-0.0626377
-0.0333415
11.1479
-5.1398
0.0339718
5.1398
-11.2099
11.2438
-3.20445
0.670039
3.20445
0.94887
5.2828
0.281333
-5.2828
0.294647
6.78827
0.0474673
-6.78827
0.0818849
-2.59269
-0.492471
-2.59269
-5.04886
-0.580452
5.04886
-0.723426
-11.4748
-0.203209
11.6781
-11.4197
6.01748
0.138568
-6.01748
11.3824
-1.02277
-0.102519
1.02277
0.0397282
1.72978
-0.329365
1.72978
3.69667
-0.199482
-3.69667
-0.105433
-6.71015
-0.0985372
6.71015
-0.155169
-2.14751
-0.445173
2.14751
-0.417729
-4.26714
4.30517
1.90919
-2.37897
-2.64832
-5.63409
1.85184
1.90144
4.30171
-10.1165
-5.99832
-9.93428
7.2603
-6.96566
-9.22995
9.1483
7.91554
-8.02928
-5.78465
5.83126
6.483
-6.44224
1.87885
1.87466
8.04897
-7.80246
-15.5521
15.173
7.59006
-7.53044
15.7054
-15.7453
-17.787
17.8345
-5.70733
5.81358
-6.74099
6.73482
-6.97736
6.91472
-2.83812
-3.63925
13.072
-12.922
8.6666
-8.69328
-8.64957
9.0723
3.38261
0.922561
3.42915
-1.88213
3.76098
-1.87149
3.78068
2.76047
-5.59859
2.60783
-5.25615
4.40631
4.26029
-4.33027
-1.30382
-5.92503
5.95302
-5.81432
5.87514
9.17247
-9.2092
-1.88518
3.75984
-1.86879
3.77023
-3.42499
-2.35966
3.37936
0.922347
8.04457
5.02745
-8.22637
-1.70791
-8.0511
7.85162
-8.23594
8.03621
-0.433084
5.82019
-5.38711
4.43707
-1.5658
7.38599
5.69451
5.91391
5.86603
-5.5847
1.09963
-6.48673
-6.4002
-2.20346
2.33509
2.08533
-1.97996
6.16718
1.74836
6.04029
-5.77282
-2.25646
-5.87639
3.82035
2.01091
3.86985
4.07857
2.40443
4.11834
3.03039
-3.03602
0.0056378
-3.05674
6.08712
0.723813
-5.41639
-4.49404
4.99023
3.05874
5.20354
-5.57352
-2.22894
-5.17865
-9.508
-6.04407
-10.0885
10.0499
5.12317
9.73903
-11.916
11.7608
4.81647
2.77359
4.87112
-4.96619
-2.56425
-4.86934
11.6216
-2.64765
-8.97393
-10.2831
-7.50395
10.2703
5.43513
10.9263
6.90822
11.0082
4.41272
7.20885
-9.84785
2.3439
-3.8684
-1.83892
-3.78092
3.67598
2.13759
3.80484
-4.21771
-2.52329
-4.19991
-4.29602
-2.68133
4.31679
2.41803
-4.41858
-3.81735
4.53461
2.3801
4.03489
-10.0332
4.30343
-7.94268
-9.16602
-3.75594
-9.03826
3.5618
2.61615
-6.17795
-2.03678
8.59675
-4.33646
7.29294
-5.22266
-3.47063
-5.21231
-6.90919
-1.74039
-6.75813
-8.84965
8.35718
-9.14545
8.50543
12.4686
-5.62576
-6.84286
-3.96848
-2.47375
3.92097
-0.491825
-3.71045
3.71609
0.0505233
3.8312
4.75376
4.26194
-3.88509
-1.92923
-3.82855
3.82509
2.05005
3.89194
6.86327
2.3092
6.89449
-6.63701
-2.5722
-6.73499
9.01182
-8.61253
2.83045
-2.73016
5.40361
2.6326
-5.18785
-2.86325
6.20792
-3.22024
-2.98768
-12.2079
10.5221
1.68582
-4.82196
-0.384889
-0.471317
-5.48381
-3.74614
5.36329
0.55062
11.0728
7.32661
-5.51196
5.7621
6.16609
6.2228
-0.177403
5.7885
-5.11846
5.25874
-2.61618
-2.64256
5.49361
-5.63018
-1.24138
-5.54811
4.30673
0.410108
1.38655
-1.13637
-1.74736
-0.456108
-1.62742
1.17744
0.907892
1.24024
0.958763
1.37633
-2.93314
0.502376
2.43076
-1.97437
-1.47758
-3.86329
-1.13398
4.99726
5.74867
2.10294
-5.64324
-0.233152
2.50806
-2.39543
-0.817936
-3.04535
2.22824
-3.04618
-3.66364
-2.09858
5.76222
-3.36984
-0.458712
3.31627
0.553572
-3.82731
-2.09772
3.7889
0.329434
-3.12835
6.19088
-3.06253
-5.05758
2.52742
3.5597
4.53833
-4.78958
2.44785
2.34173
-1.22988
4.25479
0.948753
4.42734
-6.97046
4.74152
5.82492
3.24738
-6.1837
1.00505
-5.96541
8.5531
-7.38152
-1.17158
4.17086
4.38224
7.03572
5.43291
-5.65398
12.6897
-1.20805
-6.17347
7.17346
-3.92607
4.85999
-8.78606
-10.2929
4.11942
-9.09852
10.8715
-1.77301
-3.61202
-8.30399
12.7105
-1.19924
-11.5113
8.53979
-4.29906
-4.42299
8.72206
-6.94671
6.98725
-1.99368
-4.99357
-10.0678
-5.67744
10.1664
1.59448
-9.94536
12.2893
-2.73651
4.12316
0.747959
4.16988
3.30871
-5.49407
2.18536
3.638
-5.63167
2.07947
-7.57355
-6.70908
12.0402
-5.33112
-10.465
-9.48452
-0.980498
2.53554
9.75373
-9.44375
7.40491
2.03884
3.30087
0.591068
-3.37592
-0.405006
0.233336
4.51286
-4.7462
4.03818
4.19548
3.26233
1.25054
3.84573
2.10729
-3.87032
-0.329589
-4.1643
1.48296
-1.74627
-3.69542
5.17838
-4.06757
0.372156
-2.74421
-3.49763
6.24184
-4.58314
3.03465
3.15623
5.08471
-4.91373
1.4161
-2.3927
-2.52103
2.65147
-4.39774
1.99517
3.18321
4.37528
0.557922
5.86816
6.17203
-8.48431
0.541634
11.1995
-9.49157
2.45617
8.55199
-9.86108
0.376561
-8.66169
1.00797
-5.34443
-5.16998
5.21272
-6.9531
-3.57334
6.23494
0.659552
-6.346
-0.412126
-6.01405
-2.8356
-6.45923
-3.03401
-6.11144
-8.68798
-1.64549
-7.0425
6.7117
-6.66018
-3.42828
7.3836
1.12183
-7.38779
7.28527
-7.4652
7.13584
0.0954872
3.6206
4.35742
1.88367
-2.39072
4.27439
-5.13508
7.44428
-8.74769
3.61261
4.22003
-6.79223
-4.52765
5.00372
4.0081
5.30214
8.8573
-10.3189
1.46162
-10.6169
11.9484
-1.33142
-16.3628
5.74586
-7.5055
2.43249
0.397961
2.55102
0.540764
2.4985
-3.03926
-2.1894
-2.09916
-2.44356
-3.46507
5.90863
1.0826
-3.53266
2.45007
-3.56726
4.64985
-0.221353
-3.31131
5.26521
-2.76671
5.66317
-3.78861
1.87456
3.44121
5.75487
-2.31366
4.39615
-1.76355
1.93217
-4.24583
-1.5329
-2.95415
5.09175
-3.28769
3.65985
-0.345547
4.00539
-4.04583
0.825598
-0.783507
3.41197
3.64119
4.31733
-3.0668
2.91618
-4.67973
-1.32965
-4.12181
-0.938598
-0.254644
-3.68598
3.94062
5.95757
-6.21221
-5.225
9.5057
-4.2807
7.6738
-5.37101
-2.30278
-4.23751
-4.37503
3.86227
1.92623
9.60003
0.20595
-5.57696
-4.91251
-3.96364
3.09908
2.15966
-1.68991
3.37572
2.16122
-0.77467
0.435331
0.804913
1.75925
-1.32392
0.30829
1.45096
-0.828076
1.69264
0.815426
-1.8077
0.180277
-1.35279
3.58104
1.07797
-1.98586
0.661937
0.983915
-3.6001
5.0842
-2.69171
-2.39249
6.06811
1.14646
-3.83817
4.40164
-3.99154
2.40752
-3.54149
-1.43065
-5.42219
-3.67383
-2.5143
4.96437
-3.39433
5.49727
1.30073
-5.26412
6.56485
-3.73038
1.63181
-3.03922
3.85464
-0.919468
-2.11975
2.90045
2.86177
-3.09051
0.0451628
-0.190063
2.40134
-2.59141
-0.644839
-2.61921
-4.57375
4.90318
-2.10508
4.55292
2.16932
-1.91735
6.47027
1.80863
-3.72598
-3.24895
-3.70766
-1.38424
3.15409
-0.568151
-4.30119
-5.56172
4.16786
0.259473
-7.08732
7.9057
-0.818372
-4.02858
-0.71294
4.8838
-6.10035
0.468679
-4.02088
3.88482
4.83357
5.09304
-11.291
-0.22028
-6.16785
1.11917
-7.28702
5.50141
-3.52367
7.64309
-10.2879
6.85957
-9.16602
6.47151
-0.815504
6.23176
-4.0464
2.74216
-8.4196
-6.82513
5.57513
-2.80154
6.32309
-3.18401
9.5071
-5.92052
5.35479
4.15231
-1.01858
-4.19373
-5.37036
4.35178
-0.0155744
4.1543
4.9805
-2.87321
4.65091
2.27012
-4.66281
-2.12762
-6.49622
1.83341
-3.33999
-1.92141
3.75482
3.16329
3.75436
1.23378
-3.34936
7.19863
-8.17913
-1.86751
-3.30246
5.36364
-1.01187
3.45142
-6.75388
-1.89302
4.77404
-0.777078
-3.99696
0.851724
-4.42507
1.67962
-6.10469
5.27348
-5.68561
2.2197
-9.72521
-5.16808
-5.12836
-2.25528
-5.20993
-7.54607
5.29079
-1.80021
5.48506
-8.47469
7.69761
-3.47367
8.76447
-5.41019
-1.04904
5.82792
1.30792
10.0724
0.227254
-4.7549
-1.92678
3.8231
-1.89632
1.1723
-3.45872
0.364373
2.50524
3.56287
-6.81196
0.019733
-4.73517
-3.90697
7.91507
5.59873
11.5563
1.23739
9.09306
-1.17799
10.3304
4.12415
4.35965
-2.97388
4.4355
0.966741
4.57935
-0.927122
2.80168
1.6239
1.7135
0.68193
2.30376
1.33743
3.12936
0.0900988
-2.00906
4.6145
-8.57814
-0.962462
-8.00158
1.14672
5.70198
-4.55525
2.89992
-0.740251
1.0036
-0.139653
-1.14173
1.28138
-2.78221
-1.9164
-0.465439
-1.68674
2.34867
1.8943
-1.88323
-0.898978
0.348371
-4.0222
3.19312
-3.14796
-0.286192
6.27866
-2.81386
0.222459
-1.18206
-2.39675
-2.85286
2.67258
6.1764
0.293866
3.11387
5.19705
3.09933
0.226119
3.88039
-5.6534
-3.69315
-5.87368
-0.372274
4.51152
1.76231
7.99142
5.91462
4.90276
-1.85112
-10.0303
6.49908
-2.06357
5.16765
-1.17069
-4.934
5.06341
2.38087
-5.72296
0.0373547
-4.89664
-6.96022
-0.509423
8.20703
-9.56296
8.51393
5.67832
1.36417
-4.38823
-0.740124
4.22476
0.13489
10.4653
-1.13199
-6.68821
7.8202
-4.56999
3.60753
0.731023
2.6447
2.01241
1.27216
-5.41605
-9.97131
-2.07222
-1.52787
-4.46471
0.53255
-2.42685
6.20874
-2.60121
3.90595
5.21899
6.22258
-2.12729
-4.08493
6.40799
-2.50203
3.72055
)
;

boundaryField
{
    wall-4
    {
        type            calculated;
        value           uniform 0;
    }
    velocity-inlet-5
    {
        type            calculated;
        value           uniform -3.75095;
    }
    velocity-inlet-6
    {
        type            calculated;
        value           uniform -5.62643;
    }
    pressure-outlet-7
    {
        type            calculated;
        value           nonuniform List<scalar> 8(3.25302 7.7558 4.47527 9.65685 7.42376 5.19663 5.81219 8.93981);
    }
    wall-8
    {
        type            calculated;
        value           uniform 0;
    }
    frontAndBackPlanes
    {
        type            empty;
        value           nonuniform List<scalar> 0();
    }
}


// ************************************************************************* //
