/*--------------------------------*- C++ -*----------------------------------*\
| =========                 |                                                 |
| \\      /  F ield         | OpenFOAM: The Open Source CFD Toolbox           |
|  \\    /   O peration     | Version:  2206                                  |
|   \\  /    A nd           | Website:  www.openfoam.com                      |
|    \\/     M anipulation  |                                                 |
\*---------------------------------------------------------------------------*/
FoamFile
{
    version     2.0;
    format      ascii;
    arch        "LSB;label=32;scalar=64";
    class       volVectorField;
    location    "99";
    object      U;
}
// * * * * * * * * * * * * * * * * * * * * * * * * * * * * * * * * * * * * * //

dimensions      [0 1 -1 0 0 0 0];

internalField   nonuniform List<vector> 
918
(
(0.98516 -0.000508461 0)
(0.00501731 2.96625 0)
(0.0105426 0.873771 0)
(0.979705 0.00214492 0)
(-0.0124057 2.06249 3.75515e-20)
(-0.00704987 2.9488 -2.42544e-18)
(0.824757 1.1715 4.50292e-19)
(0.106346 0.0780887 -1.45954e-20)
(0.999909 -0.000275501 0)
(0.066715 0.743996 0)
(0.0206581 0.482092 0)
(0.731842 0.00730641 0)
(0.0111005 2.93036 0)
(0.0030579 2.79482 0)
(-0.0179801 3.14509 7.82688e-19)
(-0.0207503 1.92009 1.1902e-20)
(0.286459 0.0629506 1.02139e-18)
(0.190329 1.14941 3.15933e-19)
(0.962709 0.00501241 0)
(0.00860689 0.404226 0)
(-0.00634612 0.0257234 -6.68501e-19)
(1.00197 -0.00497408 0)
(1.00023 -0.00978302 0)
(0.975741 -0.00643821 0)
(0.598027 0.0313904 0)
(0.0137719 2.64292 0)
(-0.0147577 2.90993 8.89585e-19)
(0.018097 0.918251 0)
(-0.0204411 1.1851 0)
(0.0210678 0.901965 0)
(-0.0157954 2.58356 0)
(-0.00140235 2.11636 -2.99915e-20)
(-0.0112119 1.89996 0)
(-0.0206049 2.98761 -8.70495e-23)
(-0.016682 3.00529 1.88492e-18)
(0.00210088 3.00017 0)
(0.871485 -0.00966267 0)
(0.39872 0.92651 1.82582e-19)
(0.81141 1.18495 -5.14211e-19)
(0.962921 1.03119 5.61717e-19)
(0.678849 1.27688 -1.05127e-19)
(0.678058 1.25124 6.01147e-19)
(0.135328 0.118672 1.42374e-20)
(0.140796 0.0604226 0)
(1.16833 0.567266 0)
(0.0997772 0.0919999 6.41602e-20)
(0.0743247 0.0560844 -6.65909e-20)
(0.919932 -0.00745821 0)
(1.00027 0.000162931 0)
(0.999909 0.000340071 0)
(1.00363 -0.0077569 0)
(1.00096 -0.000916652 0)
(1.00017 3.85575e-05 0)
(0.0725744 1.82516 -7.74558e-19)
(0.032999 0.946354 0)
(0.0986676 0.823588 0)
(0.0152002 0.89308 0)
(0.0416636 0.663007 0)
(0.00741607 2.01574 0)
(0.00313549 0.770175 0)
(0.0203354 0.505204 0)
(-0.00132851 0.757308 0)
(0.0144865 0.460396 0)
(0.842251 -0.0156522 0)
(0.842367 0.0272618 0)
(0.757659 0.00420118 0)
(0.800689 0.0295621 0)
(0.700823 0.0193919 0)
(0.0146827 3.00041 8.9848e-19)
(0.0114922 3.00807 0)
(0.00610866 3.00274 0)
(0.0135417 2.99736 1.01851e-23)
(0.00796152 2.95848 -1.33536e-18)
(0.0144887 2.98201 0)
(0.0108592 2.90361 0)
(0.0246936 2.93074 2.0271e-24)
(0.00464119 2.82474 0)
(0.030337 2.9164 0)
(-0.00517818 2.7462 0)
(0.302592 3.53487 0)
(-0.131446 3.61494 0)
(0.136345 3.23467 -7.28353e-19)
(-0.0140252 2.97487 0)
(-0.0281657 1.98679 0)
(-0.00706458 2.17022 -1.17389e-20)
(-0.0145589 1.92858 6.43628e-21)
(0.337231 0.137174 -3.54597e-19)
(0.317305 0.0382097 -3.44709e-19)
(0.291368 0.139821 -1.0622e-18)
(0.249659 0.0684808 -6.89872e-19)
(0.229816 0.985956 0)
(0.27376 1.2986 -3.68253e-19)
(0.369338 1.2349 6.14913e-19)
(0.987419 0.00858368 0)
(0.941839 0.00580318 0)
(1.0003 0.000581829 0)
(1.00286 0.00931052 0)
(1.00301 0.00847664 -2.76099e-18)
(0.991906 0.00969266 2.085e-18)
(-0.00984024 0.745649 0)
(0.0138216 0.4155 0)
(-0.0556261 1.00894 0)
(-0.0319428 0.796049 0)
(0.000818726 0.403827 0)
(-0.0850884 0.0937774 2.07432e-19)
(0.0502263 0.0652167 0)
(0.993556 -0.00836847 0)
(0.954475 -0.00653436 0)
(0.743403 0.0302454 0)
(0.677802 0.0288492 0)
(0.660699 0.0266297 0)
(0.973095 -0.00704758 0)
(0.584955 0.0740326 0)
(0.458717 -0.000550062 1.54863e-18)
(-0.0373192 2.86191 6.49204e-19)
(0.0411955 2.91019 0)
(0.053179 2.88639 0)
(-0.00417998 2.70108 0)
(-0.0134646 2.98507 8.41174e-19)
(-0.0177934 2.89488 0)
(-0.0154396 2.98807 -2.61073e-18)
(-0.0132983 2.92516 8.94068e-19)
(-0.0396024 1.35733 0)
(-0.00840316 1.39026 0)
(-0.0072901 2.13557 5.74793e-22)
(-0.00638101 2.09718 0)
(-0.0230955 1.90757 0)
(0.938718 -0.00734815 0)
(0.857693 -0.00997455 0)
(0.862531 0.00575421 0)
(0.949682 -0.00778209 0)
(0.88415 -0.00820263 0)
(0.509573 1.11907 -2.30322e-19)
(0.558987 1.17037 0)
(0.36357 0.871038 3.38561e-20)
(0.306871 0.730164 0)
(0.925064 1.0673 -1.55034e-19)
(1.04461 0.87651 3.16911e-19)
(0.361755 1.36128 0)
(0.53064 1.33264 0)
(0.551293 1.27173 0)
(0.121199 0.182757 -3.03979e-19)
(0.163151 0.116089 0)
(0.174333 0.0997704 1.89859e-19)
(1.01516 0.930779 0)
(1.08931 0.78364 0)
(1.11475 0.725305 -2.52899e-19)
(1.14768 0.62688 0)
(1.19741 0.409401 5.79361e-20)
(0.957817 -0.00867907 0)
(0.962547 -0.010019 0)
(0.901814 -0.00798961 0)
(0.984213 -0.00913957 0)
(0.974729 -0.00932117 0)
(0.937155 -0.0063757 0)
(1.00019 0.00234131 0)
(1.0009 0.00141826 0)
(0.999909 0.000855996 0)
(0.0355687 2.0699 4.29059e-19)
(0.118273 1.7682 0)
(0.018246 2.18316 6.60283e-19)
(0.0458362 1.87944 -5.505e-19)
(0.107517 1.15167 -2.58691e-19)
(0.0503695 1.02768 0)
(0.14458 0.989716 0)
(0.00919418 0.845096 0)
(0.021331 0.598536 0)
(-0.000681948 2.23992 -8.05926e-22)
(0.0162928 2.01921 0)
(-0.00158408 2.24306 -2.71167e-20)
(0.00887506 2.026 4.07824e-20)
(0.00616461 0.813946 0)
(0.00451969 0.78982 0)
(0.0163609 0.546252 0)
(-0.00576059 0.748619 0)
(0.00808692 0.439981 0)
(0.938947 0.00989339 0)
(0.851111 -0.0145834 0)
(0.927969 0.000515724 0)
(0.842958 -0.0128689 0)
(0.809256 0.00128781 0)
(0.899295 0.0208458 0)
(0.875322 0.0244262 0)
(0.783046 0.0014317 0)
(0.00573619 3.06498 -8.35095e-21)
(0.0166599 3.05757 0)
(0.014664 2.96901 0)
(0.00874676 2.87625 0)
(0.916461 3.94401 0)
(1.22875 3.27785 9.20777e-19)
(0.0685216 3.0673 0)
(-0.029582 2.9008 0)
(-0.0113263 1.41386 0)
(-0.0338534 1.70262 0)
(-0.0201821 1.54332 0)
(-0.0311556 2.54328 -9.39371e-21)
(-0.0158626 2.23838 0)
(-0.0216217 2.38414 0)
(-0.000529979 1.95492 9.52763e-22)
(-0.00361819 2.24032 -1.03585e-20)
(-0.00547121 2.20503 -6.72309e-21)
(-0.00839205 1.93986 0)
(0.387013 0.120667 5.42341e-19)
(0.367301 0.0242025 -5.32214e-19)
(0.258002 1.58306 0)
(0.278283 0.759231 -3.16688e-19)
(0.176681 1.67056 -1.04912e-18)
(0.225392 1.22114 1.05139e-18)
(0.901896 0.00624535 0)
(0.967318 0.0112114 0)
(0.974506 0.0108404 0)
(0.923246 0.00634017 0)
(-0.00793535 0.744493 0)
(-0.00899081 0.741882 0)
(0.00876847 0.421166 0)
(0.0908134 0.0677402 5.89524e-19)
(0.0885814 0.0404129 -6.91851e-19)
(0.0492799 0.0521091 0)
(1.10244 0.087283 2.72506e-20)
(1.08439 0.0400738 0)
(1.01546 0.0405017 0)
(0.908838 -0.00494054 0)
(0.439492 0.103518 0)
(0.498564 0.0870011 -2.47563e-18)
(0.410402 0.0178843 9.26351e-19)
(0.00853738 2.98108 7.01227e-19)
(-0.0323005 2.86521 4.69602e-20)
(0.00357563 3.05034 -1.76996e-20)
(0.0202191 3.04326 6.28939e-19)
(-0.0149798 2.99659 2.93804e-20)
(-0.0129247 2.94944 -1.18228e-22)
(-0.0172653 3.01192 -5.44313e-19)
(0.0148945 3.02371 3.94522e-19)
(0.00742241 3.03692 -6.24079e-19)
(0.934269 -0.00113336 0)
(0.939653 -0.00313924 0)
(0.846278 -0.00945835 0)
(0.956362 0.0120722 0)
(0.942373 0.0134971 0)
(0.881262 0.00572602 0)
(0.916328 0.0173967 0)
(0.925428 0.0153802 0)
(0.837044 0.00306658 0)
(0.712106 1.39604 3.47753e-20)
(0.745641 1.50467 0)
(0.178519 0.308978 7.0633e-20)
(0.22857 0.664749 5.67986e-19)
(0.260377 0.714326 -3.31921e-19)
(0.2597 0.513089 6.61117e-19)
(0.347036 0.810388 1.59979e-18)
(0.141076 0.229627 3.7776e-19)
(0.251107 0.140274 7.29869e-19)
(0.212299 0.13122 1.89014e-19)
(0.212212 0.0820312 3.57731e-19)
(1.18633 0.46766 6.59648e-20)
(1.20065 0.258976 6.08272e-20)
(0.0104665 2.23191 2.54129e-19)
(0.0402671 1.94787 0)
(0.97201 0.029684 0)
(0.944179 0.0140855 0)
(0.870265 -0.0177004 0)
(0.0114004 3.07419 0)
(0.019719 2.94421 1.14893e-18)
(0.016379 2.9563 0)
(0.00644376 2.85048 -1.13956e-18)
(0.00643662 3.09176 2.78578e-19)
(0.00696958 3.08233 0)
(0.77833 1.80549 -1.56277e-19)
(1.23648 2.47974 3.94886e-19)
(0.760269 1.94473 -1.2168e-18)
(0.0192791 2.98025 -6.01379e-19)
(0.0345719 2.99791 0)
(-0.0351281 2.87543 0)
(-0.00373591 2.22314 -1.32453e-20)
(-0.0030702 2.2443 1.66362e-20)
(0.0021659 1.98903 -7.36751e-21)
(0.278241 1.39303 1.02705e-18)
(0.240263 0.555321 -7.04046e-19)
(0.0636911 1.99487 7.62741e-19)
(0.134846 1.88119 -9.10774e-19)
(0.179781 1.51176 9.52696e-20)
(0.00576442 3.11814 -1.5463e-18)
(0.0122474 3.11896 1.69356e-18)
(-0.00940508 2.98044 7.73403e-19)
(-0.00425078 2.97708 -7.28965e-19)
(-0.0213723 2.88053 -7.877e-19)
(0.00841272 3.09891 -2.06718e-18)
(0.0014997 3.10608 2.08441e-18)
(0.282453 0.692105 0)
(0.247656 0.68025 -1.1829e-18)
(0.0950353 0.222516 5.25081e-19)
(0.358375 0.938531 1.11803e-18)
(0.1963 0.276504 -1.72386e-18)
(1.19062 0.176584 6.31065e-20)
(1.20097 0.314044 0)
(1.17898 0.123805 -5.97113e-21)
(0.0017844 2.25111 -1.46668e-21)
(0.00517604 2.24217 0)
(0.0247152 1.98398 0)
(0.339428 1.30182 -3.68559e-19)
(0.375179 1.15077 -8.0236e-19)
(0.211027 0.379468 1.43149e-18)
(1.00588 -0.010822 0)
(1.00767 -0.00762974 5.09323e-19)
(-0.0332454 1.33883 0)
(-0.0448844 1.34176 0)
(1.00221 0.00351725 1.81276e-21)
(1.00366 0.00947418 1.04e-18)
(-0.0197871 2.52828 1.1907e-20)
(-0.0246002 2.57081 0)
(0.0331653 3.1761 3.93344e-19)
(0.387232 3.47962 0)
(1.17933 0.669217 -5.66303e-20)
(1.01282 0.0131566 -2.13294e-21)
(1.02137 -0.0102586 0)
(1.0017 0.000138359 8.1047e-23)
(0.113273 1.37507 0)
(0.143108 2.56079 0)
(0.0358504 1.3169 0)
(0.00093694 2.61269 2.75377e-20)
(-0.0201757 2.57038 6.13534e-22)
(0.999667 0.0311141 2.515e-21)
(1.06335 0.00494183 0)
(1.09801 0.0256382 0)
(-0.0319722 1.74716 0)
(-0.0181808 2.57207 0)
(-0.00413063 1.32823 0)
(0.31149 1.48813 -1.65369e-19)
(1.01131 -0.00960613 0)
(1.0094 -0.0149132 0)
(1.00237 0.000764535 6.50953e-19)
(1.00547 -0.00479279 -7.65051e-19)
(1.00118 -0.000964567 0)
(-0.0196835 1.47931 0)
(-0.00655732 1.397 0)
(-0.0113749 1.4392 0)
(-0.00943583 1.31472 0)
(-0.0233401 1.30301 0)
(-0.0112623 1.28743 0)
(1.03511 -0.0059938 0)
(1.0198 0.0161862 -9.14531e-22)
(0.825647 1.27998 2.61358e-19)
(1.00224 0.000330619 -6.48353e-19)
(1.00406 0.00526722 7.59155e-19)
(1.00118 0.0020804 0)
(1.0127 0.0103966 6.45435e-19)
(1.00797 0.00832255 -7.82002e-19)
(1.00855 0.0146873 0)
(-0.0236386 2.59941 0)
(-0.0261144 2.57859 -2.20263e-20)
(-0.0231442 2.5929 1.55256e-20)
(1.23998 0.270472 5.8339e-19)
(1.16408 0.0880247 0)
(0.0393471 3.07907 -8.8499e-19)
(0.0643956 2.85776 -6.44223e-20)
(0.136048 3.19237 1.34578e-18)
(0.131977 3.21899 -1.87985e-19)
(0.1318 3.22889 0)
(0.0183608 3.13709 2.28451e-19)
(0.0727287 3.16009 8.7286e-19)
(0.0659926 3.18447 -4.30802e-19)
(0.0212958 3.12995 0)
(0.551869 0.279465 0)
(0.482476 0.296758 0)
(1.15203 0.70572 1.27852e-19)
(1.14474 0.827752 -1.10494e-19)
(1.20732 0.591973 0)
(1.23438 0.525232 0)
(1.016 0.0134146 -1.20301e-18)
(1.01491 0.01431 1.51039e-18)
(1.02543 -0.00978101 0)
(1.02349 -0.0118305 0)
(1.00643 0.00267034 0)
(1.01043 0.00377885 0)
(1.00458 0.00188272 0)
(1.00978 0.00627875 0)
(1.0078 0.00597245 0)
(1.0045 0.00474181 0)
(0.101963 1.37377 0)
(0.0989785 1.33499 0)
(0.132318 1.41036 0)
(0.150033 1.41422 0)
(0.145231 2.58589 0)
(0.184569 2.65651 -4.24064e-19)
(0.101644 2.64075 0)
(0.0853419 2.64385 1.99441e-19)
(0.0393253 2.6671 -1.48934e-19)
(0.0241855 1.33563 0)
(0.0337813 1.24949 0)
(0.0262938 1.34614 0)
(0.0471878 1.27048 0)
(0.00518625 1.97945 4.63628e-21)
(-0.0190969 2.59805 -2.25017e-20)
(-0.00695731 2.65384 1.20029e-20)
(-0.0167903 2.6741 0)
(-0.0221694 2.6038 3.61014e-21)
(-0.0221897 2.59888 1.85145e-20)
(0.0139322 1.9773 1.55792e-22)
(-0.00663524 2.38398 3.01849e-20)
(-0.0120588 2.40751 -1.36142e-20)
(1.0118 0.0400428 1.21755e-18)
(1.00557 0.0212183 -1.51591e-18)
(1.004 0.0472853 -1.24051e-18)
(0.978774 0.0377551 1.56104e-18)
(1.06455 0.0087335 0)
(1.04964 -0.00810515 0)
(1.09514 0.0356648 0)
(1.07475 0.0133253 0)
(1.07257 0.00110414 0)
(1.14104 0.0847864 0)
(1.11265 0.0455001 0)
(1.11692 0.0331676 0)
(-0.0264994 2.42285 1.846e-21)
(-0.0159828 2.01404 0)
(-0.0188699 2.21218 0)
(-0.0201369 2.5925 -1.33834e-20)
(-0.0172104 2.6026 2.81684e-22)
(0.00251845 1.59196 -4.43098e-20)
(-0.0102436 1.51961 4.51899e-20)
(-0.0178047 1.40926 0)
(-0.0223243 1.41696 0)
(-0.0296943 1.41035 0)
(-0.0011542 1.33027 0)
(0.0165093 1.24275 0)
(0.388385 1.50551 2.6812e-19)
(0.431858 1.50604 1.43822e-19)
(0.596295 2.43634 -2.41103e-19)
(0.396702 2.53397 7.09372e-19)
(0.348036 2.04493 7.33825e-20)
(1.0211 -0.00808579 0)
(1.01552 -0.00972804 0)
(1.01493 -0.0154946 0)
(1.00741 -0.00104333 0)
(1.00493 -0.000896968 0)
(1.00779 -0.00466737 0)
(1.00928 -0.00357741 0)
(1.01424 -0.00433625 0)
(1.02052 0.0166794 1.17869e-18)
(1.01752 0.0158782 -1.51061e-18)
(1.02083 0.0189751 -1.18773e-18)
(1.01827 0.0175347 1.48903e-18)
(0.789068 1.33023 0)
(0.72387 1.38196 2.45461e-19)
(0.902125 1.23006 9.81482e-20)
(0.947873 1.17594 -1.30624e-19)
(1.14978 2.59163 2.90444e-19)
(0.763119 0.123773 6.03192e-19)
(1.16462 0.110919 0)
(1.21447 0.196976 -4.69677e-19)
(1.20204 0.157162 -2.00314e-20)
(1.00583 0.159348 0)
(0.125801 2.96079 5.1237e-19)
(0.101653 2.86669 -1.11785e-18)
(0.00899052 2.37751 7.4508e-19)
(0.108401 -0.178921 -3.01175e-19)
(0.332501 3.41017 -2.19064e-19)
(0.188996 3.3066 0)
(0.232724 3.34566 2.85302e-19)
(0.236075 3.03155 -1.72308e-18)
(0.327779 3.18775 0)
(0.00595866 3.12094 4.48875e-20)
(0.0169185 3.12947 -5.27622e-19)
(0.0146504 3.12555 7.76558e-19)
(0.0338053 3.13966 0)
(0.0319587 3.15009 0)
(1.20394 2.58834 0)
(0.549418 0.796017 -5.27361e-19)
(1.07141 1.00068 -1.02453e-20)
(1.00742 1.0845 0)
(0.860823 0.979144 -1.10093e-19)
(1.09868 0.900991 2.78847e-20)
(0.249994 0.308171 -8.03562e-19)
(0.637876 0.325125 -1.52152e-20)
(0.523304 0.219654 4.0664e-19)
(0.501036 0.335231 2.90508e-20)
(0.382708 0.258844 -1.16314e-18)
(0.588477 0.325636 0)
(0.704097 0.431796 6.64076e-19)
(0.701675 0.431949 0)
(0.54412 0.339635 0)
(0.458789 0.2359 0)
(0.833142 0.63372 4.08068e-19)
(1.24145 0.292996 -4.90506e-19)
(1.24229 0.43304 0)
(1.25027 0.372992 0)
(0.670099 0.196111 6.23331e-19)
(0.877113 0.563988 -3.72113e-19)
(0.776225 0.542712 6.64504e-19)
(0.963283 0.453306 -7.35833e-19)
(1.01924 0.0150776 8.10211e-19)
(1.01754 0.0144172 -8.13869e-19)
(1.01574 0.0155187 0)
(1.03659 -0.00553363 0)
(1.02998 -0.00832671 -7.62032e-19)
(1.02803 -0.0119247 7.5446e-19)
(1.02491 0.0107004 0)
(1.0234 0.014431 0)
(1.01143 0.00420768 0)
(1.01417 0.00922969 0)
(1.01519 0.004239 0)
(1.0143 0.00294754 0)
(0.0730705 1.35711 0)
(0.080451 1.30099 0)
(0.149411 1.39232 3.66864e-21)
(0.282512 1.48655 8.76917e-20)
(0.1773 1.45719 1.84086e-19)
(0.20936 1.46246 -3.00273e-19)
(0.178027 1.41829 0)
(0.136444 1.59996 -7.55307e-20)
(0.11983 1.58009 0)
(0.34372 1.99335 -1.06715e-19)
(0.340396 2.33023 6.17422e-19)
(0.196061 1.46841 6.58376e-20)
(0.270026 1.40371 2.14555e-20)
(0.203162 1.397 -1.7322e-20)
(0.28001 1.34633 -1.09827e-19)
(0.243251 1.57833 0)
(0.269508 1.61466 1.1729e-19)
(0.0312007 2.25111 -3.01809e-20)
(0.044252 2.65603 0)
(0.0668696 2.38685 1.39484e-19)
(0.0636948 2.40723 0)
(0.0699399 2.65739 -2.21013e-19)
(0.0496913 2.68634 0)
(0.0310436 1.45459 3.48171e-20)
(0.0371635 1.50035 0)
(0.035501 1.41896 0)
(0.0311199 1.42573 -3.92913e-20)
(0.00172274 2.64001 -1.63601e-20)
(0.0304158 2.68539 1.67342e-19)
(0.0113176 2.71079 1.1698e-21)
(0.00718737 1.84016 -8.49527e-21)
(-0.000100499 1.6951 -4.41277e-21)
(0.0207084 1.31137 0)
(0.031387 1.22329 0)
(0.0461081 1.59796 -2.49186e-20)
(0.036408 1.47998 -3.12055e-20)
(0.0399234 1.54218 3.88892e-20)
(0.0413761 1.62108 0)
(-0.0296398 2.26411 1.06066e-19)
(-0.0306023 2.53913 -4.405e-20)
(-0.0165439 2.43756 5.17176e-21)
(-0.000261283 1.85532 1.02952e-20)
(-0.0251091 2.48968 4.53194e-21)
(-0.0194056 2.43429 -6.54861e-21)
(1.01895 0.0223664 -8.07854e-19)
(1.01555 0.0287377 8.10983e-19)
(1.01296 0.0184029 0)
(1.00905 0.071596 1.1368e-18)
(0.991621 0.0621182 -1.26878e-18)
(0.95082 0.0560522 1.41862e-18)
(1.01234 0.112129 -1.51283e-19)
(1.04304 -0.00550055 0)
(1.05151 -0.00105718 7.26724e-19)
(1.03935 -0.00967198 -7.28223e-19)
(1.07228 0.0433726 -4.32306e-20)
(1.06523 0.0244768 3.72761e-19)
(1.06321 0.0577324 0)
(1.05411 0.0511039 -1.34118e-19)
(1.03215 0.042532 0)
(1.02658 0.0385726 0)
(1.0279 0.0138374 0)
(1.0239 0.0166751 0)
(1.04023 0.0333367 2.7618e-19)
(1.03891 0.0272398 -6.1052e-19)
(1.05146 0.0349704 -2.92672e-19)
(1.04842 0.0350467 -3.22369e-19)
(1.07178 0.0661425 6.29172e-19)
(1.09739 0.0539077 0)
(1.10695 0.098377 0)
(-0.0253095 2.26861 5.98267e-20)
(-0.0256105 2.01965 1.70463e-21)
(-0.021638 2.02682 0)
(-0.0267113 2.43696 -5.95376e-20)
(-0.0226961 2.39381 -3.46968e-21)
(-0.0331676 2.46335 6.45648e-21)
(-0.0199099 2.61149 -1.62306e-20)
(-0.0227934 2.55317 4.49797e-22)
(-0.0213978 2.50519 -4.87426e-21)
(-0.0152917 2.60546 1.29196e-20)
(-0.0201679 2.60745 -1.42094e-20)
(-0.00576827 1.5224 -9.30962e-22)
(0.00284851 1.63801 -4.24366e-20)
(0.373459 1.45438 -1.12252e-19)
(0.373452 1.38633 4.43186e-20)
(0.664761 1.43161 -2.37409e-19)
(0.530654 1.49868 -1.41087e-19)
(0.588542 1.46481 0)
(0.592063 2.41347 2.07859e-19)
(0.660567 2.4093 3.38296e-19)
(0.410224 2.50282 8.80552e-20)
(0.401624 2.52702 -6.12945e-19)
(0.509144 2.46772 6.17638e-19)
(0.552083 2.45016 0)
(0.486528 2.50805 -5.60537e-19)
(0.247657 2.58026 1.14537e-18)
(0.353876 2.55222 -7.67653e-20)
(0.283031 2.64187 -1.58911e-18)
(0.946944 2.36637 7.31269e-19)
(0.836948 2.3717 0)
(1.01109 0.000562934 2.64092e-20)
(1.01538 -0.00533361 -2.14203e-20)
(1.0177 -0.0034298 -3.91228e-19)
(1.01507 -0.000793535 3.93373e-19)
(1.01249 0.00131145 0)
(0.652228 1.29475 0)
(0.676367 1.18903 0)
(0.790566 1.1085 0)
(0.669702 1.15171 0)
(1.18022 2.60515 6.0398e-20)
(1.06753 2.35134 0)
(0.830616 2.15589 3.95399e-21)
(0.821699 2.42143 0)
(0.920105 2.51584 -4.29566e-19)
(0.955078 2.47207 2.85732e-19)
(0.795665 0.183775 0)
(0.735881 0.157249 1.63496e-19)
(0.905033 0.153421 9.53387e-19)
(0.821242 0.15588 -3.56475e-19)
(0.773931 0.0902032 -1.10264e-18)
(1.08328 0.244307 -8.9718e-19)
(0.99973 0.308615 -1.80068e-20)
(0.926546 0.312681 8.6303e-19)
(1.00677 0.237889 7.25622e-19)
(0.947171 0.201956 -1.2611e-18)
(0.908023 0.206447 1.57743e-19)
(0.9465 0.273592 -3.347e-19)
(0.92431 0.232553 0)
(0.995524 0.198548 6.21852e-19)
(1.0473 0.196997 0)
(1.04511 0.225698 0)
(1.10833 0.122935 2.91647e-19)
(1.07243 0.183245 -1.51956e-20)
(1.07671 0.244224 -1.5866e-19)
(1.1021 0.209875 0)
(1.02088 0.046944 6.23114e-19)
(1.04041 0.0601506 7.77373e-19)
(1.03365 0.0453549 -6.19229e-19)
(1.04246 0.0680643 -5.21556e-19)
(1.01688 0.0764076 -8.0093e-19)
(0.983531 0.161713 0)
(0.988854 0.10672 0)
(0.965963 0.077196 -5.04725e-19)
(0.903615 0.0980428 2.00874e-19)
(1.04042 0.10914 7.20398e-19)
(1.06972 0.126344 -8.41156e-19)
(1.07691 0.159063 7.51077e-19)
(1.03215 0.153746 0)
(1.07523 0.113648 0)
(1.05422 0.0943082 -3.44774e-19)
(1.04477 0.100076 -5.87843e-19)
(0.577578 1.04795 1.44611e-19)
(0.600018 1.37007 -4.65729e-20)
(1.15079 2.72266 -2.34747e-19)
(1.21589 3.06482 3.81324e-21)
(1.24162 2.70407 -1.33873e-19)
(1.26939 2.68665 -2.5804e-20)
(1.19545 2.32551 -1.13511e-20)
(1.20361 2.96831 -1.00339e-19)
(1.22416 2.93387 2.44957e-19)
(1.20557 3.21681 -1.39317e-19)
(1.36434 2.9463 1.9241e-19)
(1.35176 2.86384 0)
(0.573388 0.806824 -5.10228e-20)
(0.0941746 1.21403 5.59485e-19)
(0.56408 0.313462 5.30983e-19)
(0.396874 0.0587585 5.66736e-19)
(0.436413 0.306127 6.60135e-19)
(0.5366 0.426388 -1.07344e-18)
(0.539978 0.420749 8.78124e-19)
(0.433993 0.27845 -3.31313e-19)
(0.275807 0.20442 7.44974e-19)
(0.699611 0.271761 -3.60504e-19)
(0.654293 0.293599 0)
(0.584639 0.209185 6.22275e-21)
(0.740561 0.516378 3.59654e-19)
(0.723532 0.487195 -1.30722e-18)
(0.617497 0.449142 8.84823e-21)
(0.607704 0.439411 0)
(0.69908 0.721291 3.97436e-19)
(0.861533 0.785357 3.93528e-19)
(0.786596 0.869197 -4.60681e-19)
(0.907129 0.822329 -1.53645e-19)
(0.938775 0.867795 -3.70351e-20)
(0.945808 0.867562 3.79256e-20)
(0.872156 0.667651 -6.76197e-19)
(0.952 0.719881 1.42644e-19)
(1.01273 0.734613 0)
(1.00325 0.710761 -1.92724e-19)
(1.0297 0.349597 2.12441e-19)
(1.15158 0.309873 2.88833e-19)
(1.07131 0.282024 3.66665e-19)
(1.02048 0.382597 -4.32099e-19)
(1.06993 0.445051 0)
(1.12618 0.424904 0)
(0.920861 0.38548 1.28364e-21)
(0.835102 0.319851 0)
(0.885947 0.319221 4.07297e-19)
(0.909781 0.3209 -8.35772e-21)
(0.958338 0.457117 2.04955e-18)
(0.920122 0.513313 5.26095e-19)
(0.923947 0.479705 -5.61474e-19)
(0.83754 0.468912 6.03492e-19)
(0.820319 0.463289 3.61944e-19)
(0.788036 0.445335 -3.55212e-19)
(1.02744 -0.000136149 6.51827e-19)
(1.02007 0.000159677 0)
(1.01858 0.00108274 4.25022e-19)
(1.02181 -0.00143922 -9.6282e-19)
(1.0224 0.00463062 4.6774e-19)
(1.02033 0.0116809 -9.79496e-19)
(1.02122 0.0110806 0)
(1.02044 0.0113153 -2.04144e-19)
(1.01595 0.00793899 5.12132e-19)
(1.01658 0.010757 -2.55603e-19)
(1.01729 0.0101177 1.88179e-19)
(0.0371175 1.33357 0)
(0.0438522 1.39025 0)
(0.0534533 1.33359 0)
(0.0609951 1.27794 0)
(0.0762043 1.40696 -4.00454e-20)
(0.0866613 1.37265 1.89096e-20)
(0.114948 1.55035 -1.71708e-20)
(0.108442 1.39598 -2.58371e-21)
(0.0417198 1.48498 1.61044e-20)
(0.0453427 1.47868 -1.23894e-20)
(0.0692742 1.3947 -1.12052e-20)
(0.06187 1.3954 4.14696e-20)
(0.0564429 1.37272 6.22311e-21)
(0.0470258 1.39661 3.39865e-21)
(0.107512 2.35419 -1.54153e-19)
(0.0962611 2.40328 0)
(0.169236 2.02892 1.106e-19)
(0.114585 1.70197 4.19552e-20)
(0.234613 2.02733 -9.15091e-20)
(0.198671 2.41625 0)
(0.261422 2.36623 -6.12339e-19)
(0.301445 2.36396 4.32498e-19)
(0.228297 1.9867 -2.54996e-19)
(0.154882 2.1447 1.72237e-19)
(0.141277 2.25028 0)
(0.0193718 1.87544 3.4399e-21)
(0.001873 2.37865 -3.37889e-20)
(0.00711957 2.1373 0)
(0.0121886 2.44308 -1.36389e-20)
(0.029943 2.28582 1.00043e-20)
(0.0194401 1.43357 -7.84505e-21)
(0.0185808 1.41601 1.34153e-19)
(0.0165159 1.42506 -4.45884e-20)
(0.0241473 1.43104 -3.69978e-20)
(0.0291584 1.45851 0)
(0.0122011 1.40951 0)
(0.00582254 1.31093 -6.13393e-20)
(0.00923098 1.40303 1.7741e-20)
(0.014636 1.40047 0)
(0.0144369 1.30089 -4.47998e-20)
(0.0279671 1.21333 9.20318e-20)
(1.04087 0.012166 0)
(1.04712 0.00844689 -6.82014e-20)
(1.03893 0.0227262 -4.9194e-19)
(1.04863 0.0214071 0)
(1.05248 0.0211894 0)
(1.03656 0.0124349 -6.81904e-21)
(1.03123 0.0122804 7.90672e-19)
(1.03176 0.0173313 9.58873e-19)
(1.02555 0.0212791 0)
(1.02251 0.0218674 0)
(1.0354 0.0263197 4.90763e-19)
(1.0259 0.0280999 0)
(1.02403 0.0277198 0)
(-0.0168497 2.02217 0)
(-0.000251047 1.66547 -3.8457e-21)
(-0.00440985 1.76783 -3.17861e-20)
(0.00084107 1.41093 0)
(-0.00410981 1.57351 -2.36847e-20)
(-0.00996109 1.48832 1.48956e-20)
(-0.00678795 1.42995 0)
(0.387283 1.63205 0)
(0.376284 1.31175 -8.56737e-20)
(0.299728 1.33982 0)
(0.427599 1.31033 2.23584e-20)
(0.479258 1.47626 0)
(0.459464 1.4202 1.88769e-20)
(1.03516 2.66739 -1.54783e-20)
(0.967103 2.39485 -9.1881e-19)
(0.91972 2.18325 1.0278e-18)
(0.851041 2.36346 2.43523e-19)
(0.846471 2.47603 0)
(0.91611 2.47248 0)
(0.930294 2.35963 0)
(0.909321 2.34919 -9.50227e-19)
(0.684715 2.4394 -4.00832e-19)
(0.798493 2.42883 -9.90482e-20)
(0.808502 2.40314 7.52545e-20)
(0.694131 2.38227 0)
(0.799491 2.37736 0)
(0.757504 2.39101 -3.7024e-19)
(0.766101 2.46582 0)
(0.638268 1.09616 0)
(0.478696 0.891623 -5.28525e-19)
(0.575633 0.943491 -3.33424e-20)
(0.517166 1.02604 0)
(0.517484 0.965709 7.89943e-19)
(0.807008 0.891377 -1.30333e-19)
(0.815042 1.02584 0)
(0.790558 0.992765 1.86131e-19)
(0.67574 1.03664 0)
(0.676338 0.940051 0)
(1.16036 2.74535 -2.34407e-19)
(1.13771 2.80913 -1.01908e-19)
(0.925722 2.32214 1.08989e-19)
(0.893923 2.30156 -8.5478e-20)
(1.1262 2.71786 0)
(1.08049 2.6872 1.02811e-19)
(1.08497 2.46957 -3.15479e-19)
(0.9791 2.22235 -2.97112e-20)
(0.489128 1.32182 0)
(0.505752 1.05539 -1.27415e-19)
(0.580654 1.16964 0)
(0.84855 0.25147 0)
(0.756101 0.200497 0)
(0.661887 0.154941 0)
(0.83951 0.252357 -6.33215e-19)
(0.726346 0.245515 3.7537e-19)
(0.922086 0.0913597 -4.13868e-19)
(0.924222 0.133391 0)
(0.912576 0.142225 1.78857e-19)
(0.848603 0.118017 7.15083e-19)
(0.812286 0.0789722 -4.48038e-19)
(1.14989 3.34123 -7.09475e-19)
(1.19963 3.26111 0)
(1.14729 3.37067 -1.48032e-18)
(0.636537 3.533 1.25389e-18)
(0.855745 3.10373 6.66216e-20)
(0.524656 0.779289 6.09956e-19)
(0.419423 0.77667 0)
(0.290305 0.332094 -1.47561e-19)
(0.483922 0.651881 8.5569e-19)
(0.574091 0.324235 -1.89439e-19)
(0.512656 0.463406 2.2711e-19)
(0.671475 0.519207 4.84016e-19)
(0.720078 0.560819 0)
(0.669747 0.572347 0)
(0.636534 0.529378 0)
(1.0123 0.621 8.80323e-20)
(0.9255 0.562657 -5.12412e-19)
(0.951456 0.593778 3.85867e-19)
(0.980247 0.533483 -3.97447e-19)
(1.08979 0.500041 0)
(1.09884 0.591874 -9.65454e-20)
(0.856133 0.418786 -8.33605e-19)
(0.85431 0.407536 -1.03264e-18)
(0.78301 0.399634 6.32109e-19)
(0.792175 0.388075 -6.42272e-19)
(0.841806 0.344482 -5.21883e-19)
(0.786873 0.340292 6.37871e-19)
(1.02679 0.00620242 -4.98231e-19)
(1.02648 0.00643718 1.01436e-18)
(1.02957 0.000344258 6.31694e-19)
(1.03376 0.00123832 -7.60851e-19)
(1.03397 0.00939812 0)
(1.03023 0.0100842 -1.23793e-18)
(0.064224 1.63836 1.96803e-20)
(0.0530807 1.59178 0)
(0.0913522 1.68721 1.3398e-19)
(0.0985691 1.66844 -1.18928e-19)
(0.0927369 1.55162 3.07195e-20)
(0.0920194 1.55355 0)
(0.0142749 1.69771 0)
(-0.000841073 1.51723 1.05259e-20)
(0.000134866 1.46415 -9.45933e-21)
(-0.00625299 1.56974 5.56566e-21)
(0.00347905 1.8869 1.54077e-20)
(-0.00842328 1.94042 -3.66569e-21)
(0.495904 1.3517 -2.88469e-19)
(0.489811 1.3508 3.17097e-19)
(0.455234 1.3061 -3.94157e-20)
(0.436686 1.2809 8.27203e-21)
(0.644488 1.31374 0)
(0.558516 1.40472 9.971e-20)
(0.575074 1.41119 -9.70733e-20)
(0.469637 1.29966 3.85206e-20)
(0.525531 1.24505 0)
(0.576667 1.2069 0)
(0.651794 2.39916 5.88825e-19)
(0.667995 2.44078 1.26749e-18)
(0.712197 2.45153 -8.73489e-19)
(0.60835 2.42537 -2.0265e-19)
(0.55878 2.51511 2.86081e-19)
(0.508319 2.49024 -7.62273e-19)
(0.976027 2.36644 -5.75547e-19)
(1.00907 2.37834 0)
(0.92258 2.16114 -6.59293e-19)
(1.05187 2.66607 0)
(1.05426 2.6526 0)
(0.589516 2.24934 -1.41365e-19)
(1.03151 3.14842 1.1611e-19)
(0.902973 3.01962 -1.79951e-20)
(0.253446 0.817147 0)
(0.274652 0.654123 -3.18531e-19)
(0.449667 0.615603 -3.22769e-19)
(0.370781 1.9928 0)
(0.45723 2.7758 -4.63814e-20)
(0.409016 2.53806 0)
(0.725571 0.67141 -8.38573e-19)
(0.809194 0.694774 1.11678e-18)
(0.828544 0.634568 -1.10305e-18)
(0.701014 0.63707 -1.0694e-19)
(0.754269 0.596833 -4.37226e-19)
(0.996541 2.74579 -8.83166e-20)
(1.03947 2.81055 -1.75221e-19)
(0.625266 2.10747 7.29403e-19)
(0.57623 1.67641 -5.18628e-19)
(0.68958 1.88092 -4.19571e-19)
(0.983315 2.4307 -1.13633e-19)
(0.99128 2.42453 3.0594e-19)
(0.641392 1.81183 2.91053e-20)
(0.434772 1.29962 1.48431e-19)
)
;

boundaryField
{
    wall-4
    {
        type            noSlip;
    }
    velocity-inlet-5
    {
        type            fixedValue;
        value           uniform (1 0 0);
    }
    velocity-inlet-6
    {
        type            fixedValue;
        value           uniform (0 3 0);
    }
    pressure-outlet-7
    {
        type            zeroGradient;
    }
    wall-8
    {
        type            noSlip;
    }
    frontAndBackPlanes
    {
        type            empty;
    }
}


// ************************************************************************* //
