/*--------------------------------*- C++ -*----------------------------------*\
| =========                 |                                                 |
| \\      /  F ield         | OpenFOAM: The Open Source CFD Toolbox           |
|  \\    /   O peration     | Version:  2206                                  |
|   \\  /    A nd           | Website:  www.openfoam.com                      |
|    \\/     M anipulation  |                                                 |
\*---------------------------------------------------------------------------*/
FoamFile
{
    version     2.0;
    format      ascii;
    arch        "LSB;label=32;scalar=64";
    class       volScalarField;
    location    "93";
    object      p;
}
// * * * * * * * * * * * * * * * * * * * * * * * * * * * * * * * * * * * * * //

dimensions      [0 2 -2 0 0 0 0];

internalField   nonuniform List<scalar> 
918
(
0.55865
1.16634
0.00024287
0.558122
-0.0126411
1.13329
-0.514289
0.651078
0.53886
-0.104041
-0.0551197
0.540791
0.994156
0.759394
-1.12529
-0.0137765
0.65202
-0.381484
0.537997
-0.0763209
0.671981
0.545391
0.548414
0.53899
0.597948
0.730534
0.87542
0.0328101
0.0136012
0.00810267
-0.0121016
-0.038841
-0.033596
1.01694
1.06802
1.09073
0.506564
0.33465
-0.379689
-0.454217
-0.43937
-0.538555
0.65333
0.654803
-0.217702
0.65272
0.650226
0.525858
0.538232
0.539148
0.540152
0.539144
0.540521
0.404529
-0.105181
-0.136743
-0.0848316
-0.0778915
0.0499325
-0.0538313
-0.0548823
-0.0547057
-0.0561646
0.455599
0.535292
0.531915
0.545028
0.554296
1.10588
1.07783
1.10396
1.01762
1.03408
0.972148
0.94474
0.780211
0.802375
0.744685
0.729882
-1.55255
-2.49568
-0.540004
-0.291914
-0.0108642
-0.0121018
-0.00676383
0.649422
0.650655
0.652405
0.653856
1.08016
-0.378437
-0.482004
0.538142
0.536955
0.545256
0.545959
0.54198
0.54107
-0.0658449
-0.0626866
-0.0642958
-0.07109
-0.0688498
0.64318
0.650338
0.539516
0.536517
0.561998
0.58271
0.572383
0.278079
0.608686
0.624791
0.567268
0.724672
0.718339
0.727427
0.849163
0.812828
0.912228
0.935508
0.0197618
-0.000432324
-0.0180669
-0.0211653
-0.0203361
0.50239
0.49492
0.522834
0.510005
0.512516
0.252297
0.120091
0.418975
0.443403
-0.299481
-0.368213
-0.431134
-0.461265
-0.568789
0.615724
0.655554
0.652723
-0.226885
-0.154839
-0.290044
-0.0813985
-0.144889
0.516101
0.523131
0.51812
0.5337
0.52816
0.530126
0.542512
0.53958
0.541141
0.466514
0.589765
0.330849
0.295065
-0.242756
-0.151971
-0.240928
-0.0677799
-0.064932
0.0645217
0.0905288
0.0363073
0.0242237
-0.061066
-0.0565773
-0.0586509
-0.0560929
-0.0580864
0.448301
0.437011
0.468323
0.475903
0.522047
0.523457
0.527838
0.525907
0.895601
0.918078
0.925472
0.899124
-3.47653
-6.24203
0.0292461
0.164364
-0.007
-0.0101345
0.00182259
-0.00636098
-0.000643729
-0.00232473
-0.0119219
-0.013353
-0.00821056
-0.00701417
0.644602
0.645134
1.0035
1.01178
0.977929
0.931197
0.526431
0.528463
0.533934
0.529835
-0.0588016
-0.0608423
-0.0593113
0.649848
0.647388
0.648949
0.23931
0.148908
0.329427
0.358785
0.638384
0.627839
0.636819
0.628216
0.663764
0.942964
0.961069
0.959328
0.96752
1.01152
1.02788
0.993296
0.481762
0.491783
0.48671
0.525648
0.523569
0.524407
0.520858
0.521843
0.519994
-0.0294417
-0.406812
0.490537
0.506285
0.492841
0.49423
0.696225
0.775309
0.653541
0.654393
0.653826
-0.0112703
-0.0698916
0.249998
0.215462
0.387468
0.424102
0.402909
0.86693
0.826864
0.877113
0.850495
0.81161
0.838227
-0.358602
-1.84861
-0.972874
0.510632
0.327029
0.413653
0.0056999
-0.0113507
-0.00656056
1.00439
1.0753
0.64548
0.821039
0.822896
0.697326
0.726912
0.786912
0.71236
0.747578
0.781445
0.75967
0.570941
0.503783
0.520965
0.844336
0.899949
0.118151
0.0553951
0.0116716
0.109895
0.167908
0.14157
1.0349
0.953224
1.02291
0.53628
0.537006
-0.00933309
-0.0265433
0.541275
0.541332
-0.0142822
-0.00390857
0.396106
-0.832654
0.0954738
0.529891
0.519709
0.536879
-0.0895143
0.355939
-0.0546834
0.0461721
-0.0126643
0.531195
0.466772
0.425746
-0.00387042
-0.0234627
-0.0654436
-0.211132
0.533949
0.532253
0.536346
0.537281
0.537966
-0.0230489
-0.0194037
-0.0125701
-0.0593423
-0.0515142
-0.0670158
0.500732
0.519806
-0.171526
0.536498
0.538638
0.538454
0.531743
0.53736
0.535622
-0.0142599
-0.0183468
-0.0208509
0.218825
0.352227
0.631221
0.715514
0.604244
0.383272
0.150644
0.53737
0.598945
0.506694
0.657828
0.651025
0.648373
0.1609
0.009913
0.170452
0.112297
0.527745
0.526486
0.517958
0.514911
0.531746
0.529854
0.534424
0.531454
0.534409
0.535784
-0.0462423
-0.0724071
-0.08201
-0.148444
0.310825
0.571178
0.255982
0.285053
0.141218
-0.0498879
-0.051448
-0.0521049
-0.0583719
-0.000318153
-0.0284489
0.0404393
0.0398481
0.0101467
-0.0154158
-0.0113113
-0.0232233
-0.0158258
0.524479
0.524383
0.529266
0.53783
0.476464
0.480243
0.444923
0.465818
0.450949
0.389309
0.425021
0.400091
-0.00899971
-0.00202126
-0.0055734
-0.0219612
-0.0183445
-0.039872
-0.03737
-0.0314746
-0.0282613
-0.035582
-0.0585174
-0.062544
-0.168903
-0.285583
0.990067
0.909101
0.142985
0.523086
0.529552
0.526308
0.531253
0.534384
0.535176
0.532876
0.529419
0.520142
0.521848
0.518374
0.519314
-0.101888
-0.244424
-0.0727422
-0.148894
0.1477
0.629499
0.364128
0.298919
0.294472
0.524255
0.897877
0.679053
0.64689
0.634742
-0.348115
0.0351408
-0.28672
0.323277
0.157291
0.634423
0.681434
0.70082
0.650655
0.604828
-0.0959027
0.557397
-0.0772701
-0.0241322
0.178608
0.0524486
0.63642
0.639819
0.645605
0.640385
0.649398
0.641862
0.622217
0.624255
0.640144
0.646757
0.479784
0.249494
0.199635
0.161136
0.644247
0.51382
0.562593
0.489132
0.522971
0.525577
0.524253
0.505568
0.513164
0.508679
0.515263
0.518797
0.527448
0.527932
0.523176
0.525308
-0.0531316
-0.058969
-0.0232217
-0.133144
-0.125615
-0.188646
-0.0572729
0.0788304
0.0401752
0.240131
0.343602
0.0553495
-0.0541991
-0.0271271
0.0169526
0.183442
0.212098
0.0755932
0.161786
0.154983
0.135182
0.238193
0.240785
-0.0311946
-0.0318025
-0.0359567
-0.0397592
0.0175063
0.0894432
0.0985186
-0.012104
-0.0157836
-0.0496756
-0.0526846
-0.0216174
-0.0265554
-0.0222653
0.0056085
-0.0561042
-0.0240305
-0.0103084
-0.0124106
-0.0111788
-0.0161547
0.519179
0.52094
0.521162
0.530158
0.542312
0.556997
0.522541
0.498738
0.489493
0.492499
0.465392
0.475738
0.471541
0.485217
0.506505
0.515022
0.513357
0.516178
0.498503
0.500207
0.486714
0.490401
0.465406
0.445972
0.433897
-0.0466723
-0.00904769
-0.0171418
-0.0418702
-0.0127691
-0.0242675
-0.0156119
0.00368992
-0.0134428
-0.014042
-0.0239886
-0.0325054
-0.0324899
-0.0704401
0.0178722
-0.184529
-0.218631
-0.292775
0.892796
1.01689
0.811063
0.584267
0.60589
0.848783
0.932466
0.543825
0.736759
0.759441
0.589918
0.858407
0.527941
0.527534
0.525133
0.524607
0.525829
-0.00531337
0.10225
0.0977778
0.163396
0.279478
0.390005
0.32416
0.199244
0.327834
0.329869
0.62167
0.633469
0.590158
0.614418
0.615414
0.425969
0.50164
0.553315
0.514336
0.566883
0.588715
0.542414
0.57591
0.524619
0.479762
0.475859
0.425663
0.445119
0.420606
0.403823
0.518559
0.495162
0.506094
0.496216
0.51835
0.544434
0.541557
0.564313
0.579342
0.498967
0.45409
0.463315
0.49353
0.455199
0.470671
0.486488
0.237323
0.140373
0.223183
-0.0607196
0.00639157
-0.00466963
-0.0540933
-0.000862738
0.282824
-0.405779
-0.383107
-1.00676
0.50815
0.940044
0.554155
0.534007
0.649005
0.637664
0.642069
0.658361
0.651694
0.632607
0.640423
0.645234
0.58978
0.611113
0.625093
0.62257
0.525052
0.379638
0.379735
0.326882
0.196901
0.237401
0.432727
0.357303
0.282448
0.282503
0.45711
0.343142
0.414004
0.446297
0.377252
0.331862
0.535681
0.601563
0.594602
0.568685
0.477654
0.488997
0.514212
0.547826
0.571099
0.605848
0.51467
0.520631
0.521858
0.51933
0.516594
0.519691
0.519943
0.522522
0.523145
0.526161
0.525228
-0.0502794
-0.0370212
-0.0474982
-0.0587682
-0.0150584
-0.0176017
0.0258623
0.013156
-0.0142763
-0.00977107
-0.030494
-0.0346717
-0.0318595
-0.0245912
0.105454
0.117875
0.102201
0.0628132
0.254707
0.383592
0.45816
0.333228
0.228059
0.251804
0.269987
-0.011741
0.0125587
0.00012096
0.0399451
0.0327256
-0.0417977
-0.0466331
-0.0442754
-0.0335228
-0.0253228
-0.047497
-0.0565683
-0.0451417
-0.0490613
-0.0518888
-0.0585412
0.501021
0.494511
0.4961
0.490063
0.488772
0.50297
0.507272
0.509278
0.514817
0.517057
0.507114
0.512542
0.516486
-0.0175457
-0.0411582
-0.0436488
-0.0388075
-0.0389256
-0.0370659
-0.0397012
0.131547
0.0617307
0.0647314
0.0160593
-0.119295
-0.0605933
0.494855
0.493028
0.480911
0.724814
0.57385
0.494617
0.59154
0.697505
0.284762
0.476627
0.313747
0.89151
0.788587
0.934775
0.54597
0.250409
0.417626
0.455946
0.272631
0.350915
0.323849
0.213935
0.244164
0.284911
0.381928
0.269328
0.247722
0.00423956
0.194721
0.304461
0.286541
0.40945
0.469052
0.270765
0.190585
0.145623
0.605983
0.625251
0.638535
0.61089
0.633584
0.582936
0.574786
0.590257
0.598533
0.592015
-0.735998
-0.442143
-1.39048
-0.719179
-0.260988
0.53832
0.515139
0.772099
0.641728
0.666665
0.651551
0.615734
0.587537
0.612917
0.6327
0.338292
0.449235
0.424014
0.430759
0.333559
0.263061
0.562795
0.560528
0.594076
0.618137
0.589068
0.619861
0.512475
0.512194
0.511658
0.507898
0.50616
0.508502
0.0606379
0.027889
0.0696128
0.0521171
0.0298702
0.0178835
-0.0194408
-0.0298874
-0.0357398
-0.0344017
-0.0196813
-0.0160366
0.173715
0.11065
0.0339837
0.0625648
0.000130977
-0.0683206
-0.0882788
0.0188817
0.114698
0.105228
0.411295
0.658404
0.47918
0.645785
0.489275
0.544776
0.469013
0.459737
0.483923
0.382166
0.462886
0.261848
-0.247646
-0.15782
0.797345
0.807379
0.581386
0.411207
0.177
0.349638
0.539347
0.468024
0.502742
0.571027
0.557407
0.0387657
0.0926313
0.390804
0.617592
0.246088
0.236626
0.230206
0.418029
0.334385
)
;

boundaryField
{
    wall-4
    {
        type            zeroGradient;
    }
    velocity-inlet-5
    {
        type            zeroGradient;
    }
    velocity-inlet-6
    {
        type            zeroGradient;
    }
    pressure-outlet-7
    {
        type            fixedValue;
        value           uniform 0;
    }
    wall-8
    {
        type            zeroGradient;
    }
    frontAndBackPlanes
    {
        type            empty;
    }
}


// ************************************************************************* //
