/*--------------------------------*- C++ -*----------------------------------*\
| =========                 |                                                 |
| \\      /  F ield         | OpenFOAM: The Open Source CFD Toolbox           |
|  \\    /   O peration     | Version:  2206                                  |
|   \\  /    A nd           | Website:  www.openfoam.com                      |
|    \\/     M anipulation  |                                                 |
\*---------------------------------------------------------------------------*/
FoamFile
{
    version     2.0;
    format      ascii;
    arch        "LSB;label=32;scalar=64";
    class       surfaceScalarField;
    location    "93";
    object      phi;
}
// * * * * * * * * * * * * * * * * * * * * * * * * * * * * * * * * * * * * * //

dimensions      [0 3 -1 0 0 0 0];

oriented        oriented;

internalField   nonuniform List<scalar> 
1300
(
3.75095
5.62643
-3.26748
3.75095
-7.75414
5.62643
-4.41464
4.41464
-0.345963
0.345963
1.87638
1.87457
-2.6965
2.6965
-2.02395
2.02395
-2.52142
2.52142
-5.24639
5.24639
-5.06855
5.06855
4.64839
-4.64839
-6.31835
6.31835
-0.936063
0.936063
-3.69709
3.69709
3.16957
-3.16957
-1.91175
1.91175
0.096396
-0.096396
-0.553467
4.30442
3.19749
3.19749
-2.00622
2.00622
-4.86992
4.86992
6.21793
-6.21793
5.24467
-5.24467
-1.97719
-2.493
1.80061
-11.4615
-5.95353
-5.95353
-8.44038
8.44038
-2.81395
2.81248
2.94647
-2.94647
-1.76266
1.76266
-4.37856
-0.0360802
-4.37856
4.38321
0.0314296
4.38321
-0.454213
0.10825
-0.454213
4.01921
-4.01921
0.240295
0.105668
0.240295
3.06541
-3.06541
-1.87712
3.75351
1.87383
-1.8719
6.17633
-1.87905
3.75362
-6.01132
6.01132
-2.94316
0.246654
-2.94316
2.48302
0.213486
2.48302
-6.8509
6.8509
-2.08244
0.0584919
-2.08244
1.97113
0.0528194
1.97113
2.88226
-2.88226
-2.62761
0.106185
-2.62761
2.39255
0.128874
2.39255
0.35351
5.27292
-5.97994
8.79242
-5.27292
0.0265292
5.20832
0.0380668
5.20832
-5.10587
0.0373254
-5.10587
5.01392
0.0546343
5.01392
4.73062
-0.0822371
4.73062
-4.76849
0.1201
-4.76849
-3.36872
-4.05743
-6.46869
0.150335
-6.46869
-1.02526
0.0892005
-1.02526
0.823483
0.11258
0.823483
-3.68751
3.68751
-4.12046
0.423371
-4.12046
3.12395
0.0456284
3.12395
1.86849
1.88247
5.61944
-5.61944
2.44986
-1.87899
-0.0327604
-1.87899
-1.99207
-3.2526
1.99207
-0.0803183
-0.14814
0.244536
-0.14814
3.15945
0.0380315
3.15945
2.23519
0.157356
-2.23519
0.228969
3.28143
-3.28143
1.33437
0.671848
1.33437
-5.56448
5.56448
4.95679
0.0571246
-4.95679
0.0868729
6.156
0.0619311
6.156
-6.19955
-0.0183845
-6.19955
2.52627
-5.01927
-2.65945
6.13613
0.182227
-6.13613
0.182597
2.91847
0.0280009
2.91847
-2.91774
2.91774
-2.98488
0.0384077
-2.98488
-2.16139
0.398731
-2.16139
1.46465
0.29801
1.46465
-4.28129
-0.0972742
-4.28129
-4.27191
0.151443
4.27191
0.111307
1.12914
-1.12914
-0.58728
0.133067
-0.58728
-4.14551
-0.135778
4.14551
-0.126307
-3.90567
-0.113534
-3.90567
-3.02464
0.0397644
3.02464
0.0407649
3.11291
0.0465407
-3.11291
0.0475076
-1.87081
3.75328
-1.88014
3.75397
-5.63215
-0.379163
-5.63215
6.32229
-0.310978
6.32229
3.33788
0.359217
-3.33788
0.394719
2.31153
0.171487
2.31153
-6.81153
-0.0393642
-6.81153
6.83756
0.0133341
6.83756
2.1796
0.131929
-2.1796
0.0971616
1.92455
0.046579
1.92455
2.90303
-0.0207643
2.90303
-2.87609
-0.00617649
-2.87609
2.79017
-2.79017
2.71512
0.0750443
-2.71512
0.0875162
-11.1329
11.1146
-0.0350979
-11.0978
5.17323
5.17323
4.15464
0.575983
4.15464
-4.98818
0.219694
-4.98818
2.69762
-5.35707
3.10798
-6.4767
4.65954
-16.121
4.28366
-8.34109
6.707
-6.707
6.59683
0.110174
-6.59683
0.12814
-1.14374
0.118479
-1.14374
-3.08726
-0.600247
-3.08726
4.32764
-0.64013
4.32764
-3.02785
3.02785
-3.07734
0.0494916
3.07734
0.0466034
1.88744
0.0371096
-1.88744
0.00845194
0.173399
0.0668965
-0.173399
0.0252588
3.4972
-0.215769
3.4972
-3.0817
-0.199734
-3.0817
-1.24398
0.100235
1.24398
0.0903952
-5.81358
0.249096
-5.81358
-11.1909
0.0930036
-11.1528
-6.10654
-6.10654
2.33383
11.1263
-2.89389
0.0178011
2.89389
0.0245822
2.97429
0.0535586
-2.97429
0.0565577
-2.85694
0.0667713
2.85694
0.0607984
-2.53608
0.374695
-2.53608
-1.06614
1.06614
-1.22927
0.16313
1.22927
0.235373
1.40377
-0.274628
1.40377
0.707373
0.116111
-0.707373
0.120092
-3.80211
-0.103557
-3.80211
6.55821
-0.235913
6.55821
-2.96566
-0.116038
2.96566
-0.0626358
-0.033362
11.1479
-5.13986
0.0339893
5.13986
-11.2099
11.2438
-3.20586
0.669776
3.20586
0.948783
5.2833
0.281181
-5.2833
0.295117
6.78951
0.0480475
-6.78951
0.0825106
-2.59508
-0.492177
-2.59508
-5.05143
-0.580727
5.05143
-0.723789
-11.4742
-0.204038
11.6782
-11.4196
6.01761
0.138388
-6.01761
11.3822
-1.02669
-0.102448
1.02669
0.0394512
1.73251
-0.328746
1.73251
3.69668
-0.199479
-3.69668
-0.105433
-6.7133
-0.0982356
6.7133
-0.155089
-2.14997
-0.445108
2.14997
-0.417461
-4.26714
4.30517
1.90919
-2.37538
-2.64389
-5.62798
1.85184
1.90144
4.30171
-10.1208
-6.00016
-9.93825
7.26053
-6.96541
-9.23066
9.14843
7.91634
-8.02987
-5.78465
5.83125
6.483
-6.44224
1.87885
1.87466
8.0437
-7.79704
-15.5607
15.1815
7.58359
-7.52509
15.7164
-15.7558
-17.7984
17.8464
-5.70731
5.8135
-6.74102
6.73484
-6.97738
6.91474
-2.83675
-3.63995
13.0785
-12.9281
8.65474
-8.6875
-8.64451
9.06788
3.38261
0.92256
3.42915
-1.88213
3.76098
-1.87149
3.78068
2.75674
-5.59349
2.60033
-5.24422
4.40265
4.25208
-4.32233
-1.30564
-5.92503
5.95303
-5.81428
5.87508
9.17019
-9.20627
-1.88518
3.75984
-1.86879
3.77023
-3.42499
-2.35965
3.37936
0.922342
8.04807
5.03041
-8.23029
-1.70795
-8.05138
7.8519
-8.23607
8.03634
-0.432465
5.81956
-5.38709
4.43745
-1.56594
7.3855
5.69458
5.91428
5.86622
-5.58504
1.09919
-6.48628
-6.39941
-2.19847
2.33154
2.08464
-1.97897
6.16694
1.7494
6.04063
-5.77317
-2.2567
-5.87673
3.82035
2.0109
3.86984
4.07857
2.40443
4.11834
3.03039
-3.03602
0.00563573
-3.05673
6.08712
0.723814
-5.41639
-4.49405
4.98701
3.05669
5.20049
-5.56998
-2.22707
-5.17526
-9.51354
-6.04713
-10.0943
10.0558
5.12575
9.74478
-11.9236
11.7685
4.81387
2.76972
4.86669
-4.96266
-2.56244
-4.86549
11.6257
-2.64719
-8.97851
-10.29
-7.50836
10.2767
5.43973
10.9328
6.91359
11.0154
4.41496
7.21074
-9.85469
2.34633
-3.86828
-1.83903
-3.78076
3.6759
2.1376
3.80478
-4.21771
-2.52331
-4.19991
-4.29603
-2.68135
4.31679
2.41805
-4.41859
-3.81748
4.53463
2.38011
4.03715
-10.0373
4.30394
-7.9439
-9.17106
-3.75708
-9.04292
3.55986
2.6136
-6.17346
-2.03363
8.5835
-4.33141
7.27785
-5.2188
-3.46869
-5.21035
-6.90634
-1.73817
-6.7549
-8.85542
8.36324
-9.1507
8.51057
12.4716
-5.62515
-6.84645
-3.96848
-2.47376
3.92098
-0.491826
-3.71045
3.71609
0.0505238
3.8312
4.75376
4.26194
-3.88507
-1.92921
-3.82852
3.82505
2.05003
3.89182
6.86081
2.30938
6.89224
-6.63623
-2.57004
-6.7335
9.01535
-8.61662
2.83092
-2.73069
5.40386
2.63248
-5.18809
-2.86329
6.20732
-3.21988
-2.98744
-12.2066
10.5219
1.68467
-4.82106
-0.383604
-0.48
-5.48381
-3.74685
5.36371
0.550568
11.0725
7.3256
-5.51268
5.76178
6.16555
6.22267
-0.176736
5.79033
-5.12055
5.26008
-2.62136
-2.63872
5.49355
-5.62933
-1.23995
-5.54807
4.30812
0.411306
1.38721
-1.14267
-1.74493
-0.453539
-1.62484
1.17393
0.910704
1.24083
0.961663
1.36987
-2.93676
0.500843
2.43592
-1.9751
-1.47812
-3.86389
-1.13566
4.99954
5.7489
2.10301
-5.64346
-0.233265
2.50671
-2.39413
-0.817846
-3.04604
2.23015
-3.048
-3.66288
-2.10101
5.76389
-3.36983
-0.458689
3.31627
0.553571
-3.82731
-2.09772
3.7889
0.329436
-3.12838
6.1909
-3.06252
-5.05759
2.52742
3.5597
4.53832
-4.78958
2.44785
2.34173
-1.22988
4.25266
0.947835
4.42415
-6.96613
4.73907
5.82139
3.24649
-6.18061
1.00535
-5.96079
8.55173
-7.38041
-1.17132
4.16885
4.38287
7.03805
5.43355
-5.65687
12.6949
-1.20877
-6.17164
7.16956
-3.92307
4.85864
-8.7817
-10.2922
4.12055
-9.10293
10.8776
-1.77466
-3.61444
-8.30913
12.7174
-1.19974
-11.5176
8.54504
-4.29506
-4.41772
8.71279
-6.94226
6.98016
-1.99219
-4.98797
-10.0748
-5.681
10.173
1.59545
-9.94438
12.2907
-2.73364
4.1212
0.745491
4.16778
3.30679
-5.49325
2.18646
3.63547
-5.62766
2.07808
-7.57133
-6.71341
12.0452
-5.33175
-10.4705
-9.49086
-0.97962
2.53566
9.75506
-9.44924
7.40825
2.04099
3.30072
0.591096
-3.37577
-0.404996
0.233423
4.51292
-4.74634
4.0382
4.19555
3.26243
1.25049
3.84574
2.10729
-3.87032
-0.32959
-4.16429
1.48294
-1.74624
-3.69537
5.17831
-4.06761
0.372237
-2.74414
-3.49762
6.24176
-4.58317
3.03466
3.15624
5.0847
-4.91381
1.41619
-2.39277
-2.52105
2.65141
-4.39765
1.9952
3.18311
4.37531
0.55783
5.8711
6.17406
-8.4847
0.540804
11.2045
-9.49651
2.45858
8.55678
-9.86683
0.375968
-8.66696
1.00504
-5.33646
-5.16842
5.21062
-6.94878
-3.57109
6.23283
0.65941
-6.34414
-0.410765
-6.01885
-2.83656
-6.46396
-3.03516
-6.11554
-8.69202
-1.64745
-7.04458
6.71579
-6.66411
-3.43015
7.3879
1.12267
-7.39274
7.29029
-7.4708
7.14205
0.0954874
3.6206
4.35742
1.88367
-2.39072
4.27439
-5.13223
7.44161
-8.74429
3.61207
4.22004
-6.79008
-4.52425
5.00716
4.00819
5.30517
8.86092
-10.3176
1.45665
-10.619
11.95
-1.331
-16.3679
5.74885
-7.50695
2.43259
0.398338
2.55107
0.540908
2.49862
-3.03953
-2.18978
-2.09939
-2.44337
-3.46476
5.90813
1.08236
-3.53259
2.45023
-3.56763
4.64998
-0.221376
-3.31121
5.26503
-2.76641
5.66337
-3.789
1.87437
3.44091
5.75458
-2.31367
4.39595
-1.76347
1.9321
-4.24577
-1.53266
-2.95435
5.09194
-3.28742
3.65965
-0.345598
4.00525
-4.04574
0.825863
-0.783315
3.41224
3.64121
4.31723
-3.06673
2.91599
-4.67946
-1.32979
-4.12163
-0.938516
-0.252334
-3.68793
3.94027
5.95918
-6.21151
-5.22432
9.50677
-4.28244
7.67592
-5.37124
-2.30468
-4.23924
-4.37738
3.86454
1.92579
9.6017
0.206787
-5.57802
-4.91377
-3.96498
3.09736
2.16272
-1.68894
3.37361
2.16894
-0.781729
0.435765
0.805063
1.76399
-1.32822
0.312349
1.45164
-0.830322
1.69068
0.816024
-1.80679
0.181954
-1.35638
3.58654
1.07954
-1.99024
0.662019
0.980546
-3.60191
5.0849
-2.69417
-2.39073
6.06545
1.14531
-3.83948
4.40276
-3.99145
2.40742
-3.54308
-1.43206
-5.42351
-3.67412
-2.51407
4.9643
-3.39406
5.49707
1.30142
-5.2638
6.56522
-3.73143
1.63042
-3.03906
3.85508
-0.918549
-2.12051
2.90082
2.86308
-3.09163
0.0455955
-0.19082
2.40159
-2.59241
-0.64641
-2.62151
-4.57374
4.90318
-2.10508
4.55293
2.16931
-1.91735
6.47027
1.80863
-3.72598
-3.24896
-3.70765
-1.38425
3.15408
-0.568221
-4.29727
-5.55619
4.16534
0.258801
-7.08171
7.89913
-0.817423
-4.02502
-0.714049
4.8829
-6.096
0.468339
-4.01792
3.88121
4.82905
5.08785
-11.2965
-0.221167
-6.17072
1.11881
-7.28953
5.50168
-3.52468
7.64523
-10.2929
6.86275
-9.17023
6.47391
-0.815615
6.23445
-4.04799
2.74405
-8.42505
-6.8296
5.56882
-2.7991
6.31431
-3.18004
9.49435
-5.91368
5.34794
4.14642
-1.0195
-4.19085
-5.36197
4.34247
-0.0140365
4.15374
4.98047
-2.87318
4.65088
2.27008
-4.66285
-2.12757
-6.49627
1.83343
-3.34003
-1.92142
3.75484
3.16328
3.75438
1.23379
-3.34938
7.20093
-8.18055
-1.86917
-3.29924
5.35573
-1.01326
3.44942
-6.74866
-1.88704
4.7711
-0.776777
-3.99433
0.854044
-4.42513
1.67532
-6.10045
5.27346
-5.68423
2.2206
-9.72755
-5.17214
-5.13269
-2.25635
-5.21445
-7.55006
5.29371
-1.80121
5.48908
-8.47726
7.70048
-3.47276
8.76647
-5.41477
-1.04919
5.83223
1.30983
10.0763
0.228411
-4.75266
-1.92818
3.82608
-1.8979
1.16918
-3.45952
0.366556
2.50301
3.56244
-6.81113
0.0210447
-4.73162
-3.90909
7.91728
5.59768
11.5569
1.23928
9.09493
-1.17765
10.3342
4.12752
4.36289
-2.97542
4.43207
0.96485
4.57691
-0.927258
2.80163
1.62381
1.71301
0.681118
2.30373
1.33748
3.12959
0.0900582
-2.00933
4.61452
-8.57951
-0.963501
-8.00352
1.1449
5.70165
-4.55675
2.90384
-0.741115
1.00593
-0.145101
-1.14155
1.28665
-2.78382
-1.92328
-0.471638
-1.69043
2.35245
1.89611
-1.88081
-0.903007
0.348678
-4.0228
3.1944
-3.1488
-0.285727
6.27949
-2.81292
0.220514
-1.1825
-2.401
-2.85454
2.67258
6.1764
0.293867
3.11388
5.19704
3.09933
0.226149
3.8788
-5.65346
-3.69253
-5.87463
-0.37295
4.50995
1.76322
7.99184
5.90964
4.89638
-1.85228
-10.0328
6.48979
-2.05771
5.15878
-1.16446
-4.93599
5.06262
2.37899
-5.72203
0.0378005
-4.89819
-6.95591
-0.50985
8.21033
-9.56645
8.51726
5.68069
1.36388
-4.39174
-0.740947
4.22861
0.134283
10.4685
-1.13111
-6.68799
7.8191
-4.57054
3.60704
0.728138
2.64547
2.01479
1.27367
-5.41432
-9.97107
-2.07467
-1.52724
-4.4654
0.534142
-2.43025
6.2094
-2.60235
3.90472
5.21675
6.22268
-2.12569
-4.08582
6.40814
-2.50342
3.71926
)
;

boundaryField
{
    wall-4
    {
        type            calculated;
        value           uniform 0;
    }
    velocity-inlet-5
    {
        type            calculated;
        value           uniform -3.75095;
    }
    velocity-inlet-6
    {
        type            calculated;
        value           uniform -5.62643;
    }
    pressure-outlet-7
    {
        type            calculated;
        value           nonuniform List<scalar> 8(3.26748 7.75414 4.47019 9.66087 7.42615 5.18572 5.80561 8.9432);
    }
    wall-8
    {
        type            calculated;
        value           uniform 0;
    }
    frontAndBackPlanes
    {
        type            empty;
        value           nonuniform List<scalar> 0();
    }
}


// ************************************************************************* //
