/*--------------------------------*- C++ -*----------------------------------*\
| =========                 |                                                 |
| \\      /  F ield         | OpenFOAM: The Open Source CFD Toolbox           |
|  \\    /   O peration     | Version:  2206                                  |
|   \\  /    A nd           | Website:  www.openfoam.com                      |
|    \\/     M anipulation  |                                                 |
\*---------------------------------------------------------------------------*/
FoamFile
{
    version     2.0;
    format      ascii;
    arch        "LSB;label=32;scalar=64";
    class       volVectorField;
    location    "93";
    object      U;
}
// * * * * * * * * * * * * * * * * * * * * * * * * * * * * * * * * * * * * * //

dimensions      [0 1 -1 0 0 0 0];

internalField   nonuniform List<vector> 
918
(
(0.98516 -0.000508487 0)
(0.00501682 2.96625 0)
(0.00899635 0.876819 0)
(0.979705 0.00214494 0)
(-0.0125632 2.06204 3.7671e-20)
(-0.00705057 2.9488 -2.42484e-18)
(0.824205 1.17076 4.51833e-19)
(0.102807 0.0791245 -1.44821e-20)
(0.999909 -0.000275446 0)
(0.0661068 0.741833 0)
(0.0201045 0.480089 0)
(0.731839 0.00718164 0)
(0.0111237 2.93033 0)
(0.00306374 2.79503 0)
(-0.0179281 3.14511 7.83641e-19)
(-0.0208749 1.91968 1.21636e-20)
(0.286786 0.0624044 1.01918e-18)
(0.190105 1.14785 3.16509e-19)
(0.962709 0.00501232 0)
(0.00737513 0.408724 0)
(-0.00453817 0.0168804 -6.65532e-19)
(1.00197 -0.00497406 0)
(1.00023 -0.00978298 0)
(0.975741 -0.00643826 0)
(0.598054 0.0312171 0)
(0.0135261 2.64289 0)
(-0.0147379 2.90993 8.89179e-19)
(0.0161283 0.92003 0)
(-0.0209603 1.18431 0)
(0.0187552 0.90436 0)
(-0.0159709 2.58465 0)
(-0.0014987 2.1162 -3.00867e-20)
(-0.0113451 1.89927 0)
(-0.0205987 2.98761 -8.70269e-23)
(-0.0166805 3.00529 1.8844e-18)
(0.00210226 3.00017 0)
(0.871485 -0.00966055 0)
(0.399635 0.927779 1.81564e-19)
(0.811013 1.18417 -5.17173e-19)
(0.962274 1.03078 5.63789e-19)
(0.678339 1.2761 -1.05292e-19)
(0.677892 1.25014 6.02803e-19)
(0.132348 0.119515 1.41924e-20)
(0.140795 0.0601224 0)
(1.16832 0.567247 0)
(0.0966099 0.0877731 6.36136e-20)
(0.0710584 0.0537578 -6.63629e-20)
(0.919932 -0.00745777 0)
(1.00027 0.000163019 0)
(0.999909 0.000340113 0)
(1.00363 -0.00775681 0)
(1.00096 -0.000916757 0)
(1.00017 3.85678e-05 0)
(0.0726142 1.82599 -7.73214e-19)
(0.0330748 0.945152 0)
(0.0986081 0.821783 0)
(0.0151696 0.892838 0)
(0.0414416 0.6597 0)
(0.00727942 2.01625 0)
(0.00258547 0.770263 0)
(0.0196098 0.50421 0)
(-0.00199519 0.758725 0)
(0.0144833 0.458883 0)
(0.842251 -0.0156558 0)
(0.84238 0.0272064 0)
(0.757706 0.00405199 0)
(0.800712 0.0294956 0)
(0.700839 0.0191974 0)
(0.0146825 3.00041 8.98256e-19)
(0.0114927 3.00809 0)
(0.00610479 3.00274 0)
(0.0135512 2.99738 1.0183e-23)
(0.00795415 2.95847 -1.33503e-18)
(0.0144872 2.98197 0)
(0.010869 2.90361 0)
(0.0246127 2.93055 2.02647e-24)
(0.00463531 2.82496 0)
(0.030687 2.91644 0)
(-0.00521252 2.74646 0)
(0.302936 3.53528 0)
(-0.13141 3.61546 0)
(0.1365 3.2347 -7.2924e-19)
(-0.0140571 2.97467 0)
(-0.0283025 1.98741 0)
(-0.00708522 2.17036 -1.19969e-20)
(-0.0146953 1.92817 6.83562e-21)
(0.33721 0.137232 -3.5383e-19)
(0.317375 0.0376223 -3.43932e-19)
(0.291155 0.139904 -1.05991e-18)
(0.250514 0.0675181 -6.88476e-19)
(0.229938 0.986489 0)
(0.273573 1.29739 -3.68767e-19)
(0.368915 1.23361 6.15684e-19)
(0.98742 0.00858315 0)
(0.94184 0.00580053 0)
(1.0003 0.000581808 0)
(1.00286 0.0093105 0)
(1.00301 0.00847629 -2.75265e-18)
(0.991906 0.0096931 2.07869e-18)
(-0.0119146 0.746832 0)
(0.0128847 0.417961 0)
(-0.0564826 1.00853 0)
(-0.0330471 0.798004 0)
(0.000532312 0.4116 0)
(-0.0933591 0.0877873 2.06577e-19)
(0.0438775 0.0629672 0)
(0.993557 -0.00836834 0)
(0.954476 -0.00653439 0)
(0.743516 0.030202 0)
(0.677868 0.0287021 0)
(0.660601 0.0264564 0)
(0.973095 -0.00704565 0)
(0.585207 0.0740379 0)
(0.458439 -0.00103056 1.54476e-18)
(-0.0370926 2.8622 6.4847e-19)
(0.0410616 2.91043 0)
(0.0534319 2.88619 0)
(-0.00423369 2.70119 0)
(-0.0134235 2.98501 8.40877e-19)
(-0.0178265 2.89483 0)
(-0.0154817 2.98806 -2.60972e-18)
(-0.0132581 2.92515 8.93893e-19)
(-0.0389485 1.35499 0)
(-0.00857783 1.38717 0)
(-0.00735366 2.13547 5.81242e-22)
(-0.00646873 2.09704 0)
(-0.0232452 1.90703 0)
(0.938719 -0.00734887 0)
(0.857692 -0.00997212 0)
(0.862545 0.0057075 0)
(0.949683 -0.00778287 0)
(0.88415 -0.00820169 0)
(0.510524 1.12032 -2.29118e-19)
(0.55985 1.17142 0)
(0.364513 0.872577 3.3737e-20)
(0.30772 0.731543 0)
(0.924662 1.06668 -1.55728e-19)
(1.04431 0.876188 3.18458e-19)
(0.361557 1.36019 0)
(0.530107 1.33179 0)
(0.551138 1.27048 0)
(0.121536 0.183953 -3.04051e-19)
(0.16209 0.115933 0)
(0.173965 0.100171 1.89481e-19)
(1.01488 0.930401 0)
(1.08918 0.783451 0)
(1.11463 0.725159 -2.54576e-19)
(1.14765 0.626814 0)
(1.19742 0.409427 5.79445e-20)
(0.957817 -0.0086793 0)
(0.962548 -0.0100188 0)
(0.901814 -0.00798931 0)
(0.984213 -0.00913929 0)
(0.974729 -0.00932089 0)
(0.937156 -0.00637541 0)
(1.00019 0.00234123 0)
(1.0009 0.00141834 0)
(0.999909 0.000856073 0)
(0.0355524 2.07096 4.2841e-19)
(0.118345 1.76906 0)
(0.0182093 2.18431 6.5879e-19)
(0.0458686 1.88024 -5.48957e-19)
(0.107307 1.15066 -2.59178e-19)
(0.0502204 1.02671 0)
(0.14449 0.987548 0)
(0.00872361 0.846109 0)
(0.0217209 0.594786 0)
(-0.000779554 2.24096 -7.92344e-22)
(0.0162242 2.01988 0)
(-0.00167008 2.24396 -2.63662e-20)
(0.00872009 2.02628 3.93005e-20)
(0.00582941 0.814586 0)
(0.00478646 0.789111 0)
(0.0161924 0.544555 0)
(-0.0053526 0.748976 0)
(0.00767749 0.440313 0)
(0.938946 0.00989012 0)
(0.851108 -0.0145928 0)
(0.927969 0.000513963 0)
(0.842956 -0.012872 0)
(0.809329 0.00121537 0)
(0.899276 0.0208732 0)
(0.875307 0.0244444 0)
(0.783153 0.00127749 0)
(0.00565035 3.0649 -8.34865e-21)
(0.0166302 3.05757 0)
(0.0146123 2.96901 0)
(0.00871415 2.87627 0)
(0.916915 3.94483 0)
(1.22927 3.27873 9.21524e-19)
(0.0684202 3.0672 0)
(-0.0298411 2.90081 0)
(-0.0115669 1.41078 0)
(-0.0337774 1.70269 0)
(-0.0204577 1.54158 0)
(-0.0313365 2.54428 -9.35598e-21)
(-0.0160809 2.23919 0)
(-0.0218738 2.38505 0)
(-0.000647792 1.95476 8.77825e-22)
(-0.00362439 2.24083 -1.09504e-20)
(-0.0054983 2.20525 -7.13176e-21)
(-0.00852199 1.9396 0)
(0.387067 0.120863 5.41087e-19)
(0.367117 0.0236217 -5.30971e-19)
(0.258039 1.58408 0)
(0.278363 0.759744 -3.16662e-19)
(0.176743 1.67152 -1.04895e-18)
(0.225459 1.22168 1.05122e-18)
(0.901901 0.00621094 0)
(0.967318 0.0112179 0)
(0.974507 0.0108403 0)
(0.923247 0.00632972 0)
(-0.00881333 0.744383 0)
(-0.00958753 0.741967 0)
(0.00871082 0.422036 0)
(0.0845835 0.0666943 5.87037e-19)
(0.0815408 0.0384649 -6.88254e-19)
(0.0452472 0.0474901 0)
(1.10244 0.0872869 2.70732e-20)
(1.0844 0.0400781 0)
(1.01546 0.0405061 0)
(0.908839 -0.00494558 0)
(0.439674 0.10364 0)
(0.498811 0.0871346 -2.46937e-18)
(0.410594 0.0172651 9.23949e-19)
(0.00853473 2.98075 7.00429e-19)
(-0.0327018 2.86481 4.59633e-20)
(0.00360095 3.05036 -1.76963e-20)
(0.0201902 3.04324 6.28757e-19)
(-0.0149625 2.99658 2.93765e-20)
(-0.012943 2.94944 -1.18176e-22)
(-0.0172772 3.01192 -5.44127e-19)
(0.0149302 3.02362 3.94626e-19)
(0.00745478 3.03698 -6.24443e-19)
(0.934269 -0.0011355 0)
(0.939654 -0.00314094 0)
(0.846276 -0.00945861 0)
(0.956361 0.012095 0)
(0.942368 0.0135227 0)
(0.881275 0.00567025 0)
(0.916323 0.0173717 0)
(0.925425 0.0153726 0)
(0.837069 0.00303225 0)
(0.712911 1.397 3.64186e-20)
(0.746308 1.50553 0)
(0.178771 0.309955 7.06125e-20)
(0.229751 0.667169 5.67282e-19)
(0.261243 0.716198 -3.31502e-19)
(0.260428 0.513905 6.60162e-19)
(0.34739 0.812388 1.60001e-18)
(0.141393 0.230604 3.77712e-19)
(0.250477 0.141039 7.28395e-19)
(0.212293 0.131258 1.8862e-19)
(0.212677 0.0811722 3.57042e-19)
(1.18632 0.467655 6.75683e-20)
(1.20066 0.258985 6.24779e-20)
(0.0104183 2.23317 2.53349e-19)
(0.0402904 1.94872 0)
(0.972001 0.029687 0)
(0.944176 0.0140847 0)
(0.870269 -0.017709 0)
(0.0114848 3.07434 0)
(0.0197788 2.94419 1.14844e-18)
(0.0163747 2.95638 0)
(0.00637584 2.85049 -1.13929e-18)
(0.00633181 3.09159 2.78486e-19)
(0.00693319 3.08215 0)
(0.778952 1.80632 -1.56857e-19)
(1.23701 2.48057 3.96751e-19)
(0.760858 1.94551 -1.21886e-18)
(0.0193813 2.98059 -6.00283e-19)
(0.0344417 2.99806 0)
(-0.0351176 2.87573 0)
(-0.00381948 2.22389 -1.32589e-20)
(-0.00309822 2.24498 1.80373e-20)
(0.00203657 1.98909 -7.35206e-21)
(0.278228 1.39408 1.02709e-18)
(0.240507 0.556047 -7.04098e-19)
(0.0636953 1.99593 7.62346e-19)
(0.134875 1.88219 -9.10461e-19)
(0.179906 1.51249 9.53759e-20)
(0.00486129 3.11869 -1.54456e-18)
(0.010774 3.11934 1.69045e-18)
(-0.00931146 2.9806 7.72389e-19)
(-0.00466843 2.97719 -7.27129e-19)
(-0.0212541 2.88035 -7.8667e-19)
(0.00841419 3.0996 -2.06756e-18)
(0.00160982 3.10515 2.0832e-18)
(0.283262 0.694417 0)
(0.248713 0.682609 -1.18281e-18)
(0.0954108 0.223569 5.25114e-19)
(0.358585 0.940233 1.11798e-18)
(0.196478 0.277222 -1.72377e-18)
(1.19063 0.176581 6.23758e-20)
(1.20096 0.314045 0)
(1.17899 0.123801 -5.17776e-21)
(0.00170205 2.25231 -1.45284e-21)
(0.00510616 2.24336 0)
(0.0247043 1.98476 0)
(0.339606 1.30303 -3.68571e-19)
(0.375425 1.15218 -8.02354e-19)
(0.211249 0.38005 1.43149e-18)
(1.00588 -0.0108219 0)
(1.00767 -0.00762973 5.0777e-19)
(-0.0329311 1.33648 0)
(-0.0448628 1.33937 0)
(1.00221 0.00351735 1.81279e-21)
(1.00366 0.0094742 1.03686e-18)
(-0.0199475 2.52929 1.18586e-20)
(-0.0247588 2.57187 0)
(0.0329286 3.17605 3.92905e-19)
(0.387665 3.47977 0)
(1.17946 0.669184 -5.57636e-20)
(1.01282 0.0131544 -2.13258e-21)
(1.02137 -0.0102586 0)
(1.0017 0.000138367 8.12828e-23)
(0.11326 1.37409 0)
(0.143196 2.56221 0)
(0.0359086 1.31605 0)
(0.00077379 2.61445 2.65161e-20)
(-0.020454 2.57205 -2.55574e-23)
(0.999635 0.0311298 2.52131e-21)
(1.06335 0.0049462 0)
(1.09802 0.0256375 0)
(-0.0320533 1.74666 0)
(-0.0183359 2.57333 0)
(-0.00498023 1.32677 0)
(0.311971 1.48723 -1.66327e-19)
(1.01131 -0.00960602 0)
(1.0094 -0.0149133 0)
(1.00237 0.000764567 6.48974e-19)
(1.00547 -0.00479278 -7.62718e-19)
(1.00118 -0.000964476 0)
(-0.0195412 1.47798 0)
(-0.00714055 1.39266 0)
(-0.0114883 1.43636 0)
(-0.0102442 1.31324 0)
(-0.0247142 1.30133 0)
(-0.012432 1.28592 0)
(1.03512 -0.00599528 0)
(1.0198 0.0161754 -9.13574e-22)
(0.825688 1.27947 2.62883e-19)
(1.00223 0.000330981 -6.46357e-19)
(1.00406 0.00526739 7.56854e-19)
(1.00118 0.00208043 0)
(1.01269 0.0103973 6.43445e-19)
(1.00797 0.00832229 -7.79634e-19)
(1.00855 0.0146853 0)
(-0.0237968 2.60065 0)
(-0.0262863 2.57972 -2.22083e-20)
(-0.0232964 2.59407 1.56641e-20)
(1.24003 0.27049 5.79503e-19)
(1.16411 0.0880227 0)
(0.0387092 3.07882 -8.84751e-19)
(0.0644951 2.85743 -6.43786e-20)
(0.13607 3.192 1.34924e-18)
(0.131601 3.21889 -1.87601e-19)
(0.131585 3.22874 0)
(0.0184105 3.13722 2.28258e-19)
(0.0726897 3.15975 8.72496e-19)
(0.0657222 3.18445 -4.30428e-19)
(0.0213964 3.12975 0)
(0.54978 0.279856 0)
(0.481792 0.298698 0)
(1.15217 0.705679 1.25153e-19)
(1.14487 0.827515 -1.06938e-19)
(1.20741 0.592006 0)
(1.23444 0.525243 0)
(1.016 0.0134127 -1.19928e-18)
(1.01492 0.0142992 1.5057e-18)
(1.02543 -0.00978042 0)
(1.02349 -0.0118295 0)
(1.00643 0.00266968 0)
(1.01042 0.00377846 0)
(1.00458 0.0018821 0)
(1.00978 0.00627942 0)
(1.0078 0.00597165 0)
(1.0045 0.00474205 0)
(0.101893 1.3728 0)
(0.0990554 1.33429 0)
(0.132466 1.40947 0)
(0.150143 1.41333 0)
(0.145329 2.58736 0)
(0.18468 2.65809 -4.23609e-19)
(0.101732 2.64226 0)
(0.0854379 2.64542 1.98782e-19)
(0.0393582 2.6688 -1.47618e-19)
(0.0237029 1.33414 0)
(0.0335832 1.24862 0)
(0.0257237 1.34479 0)
(0.0470742 1.26969 0)
(0.00513824 1.9802 5.56643e-21)
(-0.019369 2.59975 -2.33179e-20)
(-0.00715846 2.65568 1.06892e-20)
(-0.0170596 2.6758 0)
(-0.0224567 2.60548 5.18426e-21)
(-0.022507 2.60054 1.9454e-20)
(0.0138738 1.97811 -5.63329e-22)
(-0.00686577 2.38576 3.12809e-20)
(-0.0122405 2.40915 -1.21237e-20)
(1.01183 0.0400267 1.21378e-18)
(1.00548 0.0212193 -1.5112e-18)
(1.00401 0.0472794 -1.23673e-18)
(0.978728 0.0378293 1.55637e-18)
(1.06455 0.00873989 0)
(1.04964 -0.00810241 0)
(1.09514 0.0356619 0)
(1.07475 0.013329 0)
(1.07256 0.00110778 0)
(1.14107 0.0848246 0)
(1.11265 0.0455151 0)
(1.11691 0.0331703 0)
(-0.0267097 2.42382 1.83842e-21)
(-0.0161438 2.01437 0)
(-0.0190583 2.21283 0)
(-0.0203154 2.59382 -1.36068e-20)
(-0.0173733 2.60399 2.92413e-22)
(0.00209959 1.59073 -4.43031e-20)
(-0.0102157 1.51836 4.51761e-20)
(-0.0183585 1.40713 0)
(-0.022817 1.4146 0)
(-0.0307096 1.40879 0)
(-0.00157393 1.32879 0)
(0.0162313 1.24264 0)
(0.3884 1.50473 2.70029e-19)
(0.431787 1.50536 1.44546e-19)
(0.59654 2.43797 -2.41164e-19)
(0.396795 2.5355 7.0931e-19)
(0.348114 2.04564 7.30397e-20)
(1.0211 -0.00808476 0)
(1.01552 -0.00972768 0)
(1.01493 -0.015495 0)
(1.00741 -0.00104331 0)
(1.00493 -0.000897127 0)
(1.00779 -0.0046671 0)
(1.00928 -0.00357711 0)
(1.01424 -0.004336 0)
(1.02051 0.0166713 1.17497e-18)
(1.01752 0.0158619 -1.50574e-18)
(1.02081 0.0189682 -1.18404e-18)
(1.01824 0.0175191 1.48432e-18)
(0.788956 1.32967 0)
(0.723825 1.38134 2.47542e-19)
(0.902163 1.22966 9.98588e-20)
(0.947913 1.17549 -1.32896e-19)
(1.15089 2.5925 2.86247e-19)
(0.7635 0.123635 6.01558e-19)
(1.16462 0.110956 0)
(1.2145 0.196994 -4.66548e-19)
(1.20211 0.157163 -1.9901e-20)
(1.00577 0.159309 0)
(0.125328 2.96037 5.12993e-19)
(0.101159 2.86607 -1.11901e-18)
(0.00753654 2.37819 7.45311e-19)
(0.109864 -0.182389 -3.00035e-19)
(0.332924 3.41032 -2.19697e-19)
(0.18902 3.30649 0)
(0.233098 3.34563 2.86126e-19)
(0.236092 3.03131 -1.72631e-18)
(0.328 3.18787 0)
(0.00682337 3.12081 4.48658e-20)
(0.0171817 3.12948 -5.2743e-19)
(0.0153046 3.12559 7.76287e-19)
(0.0341542 3.13946 0)
(0.0322556 3.15015 0)
(1.20492 2.58918 0)
(0.550612 0.79591 -5.26163e-19)
(1.07149 1.00028 -1.15771e-20)
(1.00749 1.08425 0)
(0.861027 0.978829 -1.09075e-19)
(1.0988 0.900898 2.78727e-20)
(0.25403 0.305135 -8.00514e-19)
(0.637124 0.325573 -1.54039e-20)
(0.521962 0.219166 4.05849e-19)
(0.500184 0.33646 2.89344e-20)
(0.380708 0.259177 -1.15818e-18)
(0.588008 0.325744 0)
(0.704895 0.432944 6.61725e-19)
(0.702236 0.433262 0)
(0.543773 0.340995 0)
(0.454797 0.237003 0)
(0.833474 0.633579 4.06155e-19)
(1.24148 0.292983 -4.87308e-19)
(1.24233 0.433072 0)
(1.25034 0.373008 0)
(0.66965 0.195941 6.22021e-19)
(0.877416 0.564278 -3.70729e-19)
(0.776633 0.542743 6.61895e-19)
(0.963276 0.453597 -7.32984e-19)
(1.01923 0.0150716 8.07618e-19)
(1.01753 0.0144157 -8.11272e-19)
(1.01574 0.015496 0)
(1.03659 -0.00553447 0)
(1.02998 -0.00832713 -7.59585e-19)
(1.02803 -0.011925 7.52036e-19)
(1.02491 0.0107038 0)
(1.0234 0.014447 0)
(1.01143 0.00420757 0)
(1.01417 0.00922869 0)
(1.01518 0.00423929 0)
(1.01429 0.00294786 0)
(0.0729435 1.35616 0)
(0.080324 1.30036 0)
(0.14936 1.39159 4.87681e-21)
(0.282759 1.48566 8.82208e-20)
(0.177539 1.45632 1.85292e-19)
(0.209687 1.46156 -3.02198e-19)
(0.177938 1.41738 0)
(0.136564 1.59973 -7.46444e-20)
(0.12007 1.57984 0)
(0.34378 1.99398 -1.06216e-19)
(0.340355 2.33121 6.16666e-19)
(0.196299 1.46787 6.50653e-20)
(0.269986 1.4029 2.18169e-20)
(0.203236 1.39612 -1.76167e-20)
(0.279934 1.34552 -1.08975e-19)
(0.243206 1.5781 0)
(0.269653 1.6145 1.16654e-19)
(0.0313873 2.25221 -2.96858e-20)
(0.0443205 2.6577 0)
(0.0670008 2.38815 1.38393e-19)
(0.0638063 2.40865 0)
(0.070035 2.65898 -2.20288e-19)
(0.0497545 2.68802 0)
(0.0309056 1.45303 3.60234e-20)
(0.0372042 1.49919 0)
(0.0354018 1.41754 0)
(0.0310484 1.4242 -4.06524e-20)
(0.00158868 2.64181 -1.6476e-20)
(0.030426 2.68716 1.6567e-19)
(0.011221 2.71262 1.15871e-21)
(0.00696138 1.84034 -9.16627e-21)
(-0.000228136 1.69483 -4.82807e-21)
(0.0201597 1.31011 0)
(0.0310041 1.22267 0)
(0.0463436 1.59754 -2.67511e-20)
(0.0363305 1.47889 -3.28772e-20)
(0.0399446 1.54128 4.10384e-20)
(0.0414991 1.62079 0)
(-0.0299199 2.26508 1.07126e-19)
(-0.0309047 2.5405 -4.45226e-20)
(-0.0167885 2.43888 5.29517e-21)
(-0.00066944 1.8556 1.11083e-20)
(-0.0254535 2.49119 4.77516e-21)
(-0.0196607 2.43577 -7.71861e-21)
(1.01893 0.0223724 -8.0532e-19)
(1.01554 0.0287363 8.08462e-19)
(1.01289 0.0183858 0)
(1.00904 0.0715876 1.13328e-18)
(0.991608 0.0621002 -1.26499e-18)
(0.950838 0.0561184 1.41444e-18)
(1.01246 0.112117 -1.50801e-19)
(1.04304 -0.00550066 0)
(1.05151 -0.00105582 7.2427e-19)
(1.03935 -0.00966968 -7.25771e-19)
(1.0723 0.043366 -4.3078e-20)
(1.06523 0.0244727 3.71478e-19)
(1.06319 0.0577422 0)
(1.05414 0.0511044 -1.33663e-19)
(1.03215 0.0424876 0)
(1.02659 0.0385805 0)
(1.0279 0.0138613 0)
(1.0239 0.016678 0)
(1.04027 0.0333607 2.75258e-19)
(1.03891 0.0272154 -6.08529e-19)
(1.05143 0.0349601 -2.91667e-19)
(1.04838 0.0350551 -3.21293e-19)
(1.07177 0.0661308 6.26961e-19)
(1.09739 0.053911 0)
(1.10696 0.0983843 0)
(-0.0256239 2.26962 6.02075e-20)
(-0.0259354 2.01986 1.70511e-21)
(-0.0219183 2.02718 0)
(-0.0269064 2.43799 -5.99184e-20)
(-0.0228623 2.3947 -3.46306e-21)
(-0.0334219 2.46449 6.50137e-21)
(-0.0201485 2.61308 -1.70831e-20)
(-0.0230826 2.55463 4.9091e-22)
(-0.0216953 2.50668 -5.09435e-21)
(-0.0154722 2.60692 1.33171e-20)
(-0.0203865 2.60897 -1.46784e-20)
(-0.00637634 1.52008 -9.6394e-22)
(0.00250591 1.6371 -4.2756e-20)
(0.37353 1.45329 -1.13394e-19)
(0.373431 1.38571 4.39668e-20)
(0.664641 1.43111 -2.39392e-19)
(0.530795 1.49804 -1.41866e-19)
(0.588682 1.46419 0)
(0.592277 2.41515 2.07781e-19)
(0.660884 2.41125 3.38361e-19)
(0.410354 2.50433 8.81743e-20)
(0.401624 2.52833 -6.11979e-19)
(0.509084 2.46883 6.18238e-19)
(0.55234 2.4518 0)
(0.486724 2.50975 -5.6038e-19)
(0.247814 2.58175 1.14442e-18)
(0.354049 2.55367 -7.67969e-20)
(0.283197 2.64343 -1.58834e-18)
(0.947522 2.36798 7.31276e-19)
(0.837288 2.37368 0)
(1.01109 0.000562784 2.63273e-20)
(1.01538 -0.00533347 -2.13539e-20)
(1.0177 -0.0034296 -3.90008e-19)
(1.01507 -0.000792562 3.92145e-19)
(1.01249 0.0013116 0)
(0.652255 1.29436 0)
(0.676237 1.1883 0)
(0.790737 1.10792 0)
(0.669594 1.15132 0)
(1.18116 2.60599 6.03564e-20)
(1.06877 2.35283 0)
(0.831636 2.15493 3.91924e-21)
(0.820941 2.42273 0)
(0.920897 2.51666 -4.26476e-19)
(0.955658 2.47248 2.83597e-19)
(0.795682 0.184022 0)
(0.735995 0.1571 1.63111e-19)
(0.905229 0.153329 9.50818e-19)
(0.821198 0.156015 -3.55503e-19)
(0.774253 0.0902815 -1.09972e-18)
(1.08318 0.244283 -8.93666e-19)
(0.999664 0.308633 -1.80245e-20)
(0.926553 0.312805 8.60576e-19)
(1.00676 0.237869 7.23348e-19)
(0.947143 0.201925 -1.25757e-18)
(0.907998 0.206398 1.57323e-19)
(0.946656 0.273665 -3.33676e-19)
(0.924271 0.232575 0)
(0.995391 0.198514 6.20055e-19)
(1.04727 0.196983 0)
(1.04507 0.225675 0)
(1.10829 0.122941 2.90548e-19)
(1.07244 0.183228 -1.52035e-20)
(1.07663 0.244227 -1.58056e-19)
(1.10201 0.209898 0)
(1.0209 0.0469269 6.21043e-19)
(1.04035 0.0601194 7.74765e-19)
(1.03367 0.0453573 -6.17176e-19)
(1.04245 0.068063 -5.19818e-19)
(1.01696 0.0764159 -7.98457e-19)
(0.983558 0.161624 0)
(0.988847 0.106701 0)
(0.965932 0.0771672 -5.03245e-19)
(0.903675 0.0980865 2.00319e-19)
(1.04041 0.109116 7.18007e-19)
(1.06965 0.126327 -8.3808e-19)
(1.07686 0.15908 7.4835e-19)
(1.03208 0.153797 0)
(1.07515 0.113661 0)
(1.05414 0.0943029 -3.43534e-19)
(1.04471 0.100062 -5.85846e-19)
(0.578077 1.04806 1.43204e-19)
(0.600527 1.36977 -4.5339e-20)
(1.15145 2.72259 -2.33127e-19)
(1.21664 3.06501 3.4716e-21)
(1.24257 2.7047 -1.30382e-19)
(1.27033 2.68733 -2.75343e-20)
(1.19665 2.32668 -1.13553e-20)
(1.20444 2.9686 -9.89041e-20)
(1.225 2.93418 2.42725e-19)
(1.20627 3.21715 -1.39981e-19)
(1.36507 2.94689 1.93331e-19)
(1.35248 2.86456 0)
(0.573828 0.806435 -5.08689e-20)
(0.0942023 1.21254 5.60525e-19)
(0.565949 0.312362 5.28704e-19)
(0.399184 0.0569322 5.64812e-19)
(0.435808 0.307096 6.57295e-19)
(0.538566 0.426588 -1.06911e-18)
(0.542478 0.420432 8.74713e-19)
(0.436374 0.279017 -3.29934e-19)
(0.276436 0.204702 7.41114e-19)
(0.69925 0.271857 -3.59759e-19)
(0.653692 0.293722 0)
(0.583712 0.208814 6.20848e-21)
(0.74144 0.517044 3.58349e-19)
(0.724735 0.488408 -1.30243e-18)
(0.619229 0.450268 8.76128e-21)
(0.608558 0.440035 0)
(0.69985 0.720711 3.95838e-19)
(0.861939 0.78507 3.91552e-19)
(0.786964 0.868574 -4.58365e-19)
(0.907586 0.822227 -1.52731e-19)
(0.939018 0.867552 -3.66926e-20)
(0.946037 0.867303 3.7575e-20)
(0.872614 0.667701 -6.73074e-19)
(0.952402 0.719835 1.41799e-19)
(1.013 0.734512 0)
(1.00352 0.710675 -1.91492e-19)
(1.02966 0.34966 2.1155e-19)
(1.15145 0.309813 2.87161e-19)
(1.07123 0.282045 3.65228e-19)
(1.02043 0.3827 -4.30454e-19)
(1.06984 0.445152 0)
(1.12624 0.424957 0)
(0.920818 0.385991 1.28699e-21)
(0.835105 0.320026 0)
(0.885944 0.319554 4.06317e-19)
(0.909903 0.320964 -8.39415e-21)
(0.958427 0.457431 2.04146e-18)
(0.920301 0.513658 5.23817e-19)
(0.923986 0.480063 -5.59453e-19)
(0.837382 0.468977 6.01254e-19)
(0.820586 0.463777 3.60735e-19)
(0.78869 0.446261 -3.5402e-19)
(1.02744 -0.000136124 6.49754e-19)
(1.02007 0.000159396 0)
(1.01858 0.0010829 4.23683e-19)
(1.02181 -0.00143905 -9.59774e-19)
(1.0224 0.00463029 4.66257e-19)
(1.02033 0.011683 -9.76395e-19)
(1.02122 0.0110827 0)
(1.02044 0.0113235 -2.03507e-19)
(1.01595 0.00794161 5.10526e-19)
(1.01658 0.0107577 -2.54805e-19)
(1.01729 0.0101181 1.87586e-19)
(0.0367239 1.3323 0)
(0.0438073 1.38867 0)
(0.0532672 1.33254 0)
(0.0607165 1.27723 0)
(0.0763166 1.40589 -4.25912e-20)
(0.0866754 1.37163 1.96931e-20)
(0.115152 1.54989 -1.65129e-20)
(0.108637 1.39485 -3.19087e-21)
(0.0417334 1.48395 1.78098e-20)
(0.0453735 1.47767 -1.36993e-20)
(0.0693097 1.39352 -1.12434e-20)
(0.0618389 1.39421 4.30825e-20)
(0.0564252 1.37135 6.45679e-21)
(0.0468273 1.39522 3.61369e-21)
(0.107653 2.35532 -1.52934e-19)
(0.0963729 2.40449 0)
(0.169404 2.02966 1.10205e-19)
(0.114902 1.70213 4.14368e-20)
(0.234722 2.02788 -9.12316e-20)
(0.198683 2.41736 0)
(0.261461 2.36728 -6.11853e-19)
(0.301597 2.36497 4.32098e-19)
(0.228432 1.98728 -2.5415e-19)
(0.155055 2.14551 1.71896e-19)
(0.141305 2.2512 0)
(0.0195105 1.8759 5.52236e-21)
(0.00183098 2.38027 -3.14894e-20)
(0.00716613 2.13863 0)
(0.0122718 2.4446 -1.36794e-20)
(0.0300535 2.28712 8.99848e-21)
(0.0192646 1.43206 -8.00341e-21)
(0.0181556 1.4144 1.36459e-19)
(0.0162896 1.42334 -4.51016e-20)
(0.0241627 1.42924 -3.7913e-20)
(0.0290018 1.45695 0)
(0.011863 1.40767 0)
(0.00557789 1.31028 -6.24856e-20)
(0.00860463 1.40171 1.81239e-20)
(0.0142839 1.39898 0)
(0.0140437 1.29991 -4.56987e-20)
(0.0275432 1.21346 9.37772e-20)
(1.04086 0.0121596 0)
(1.04712 0.00844308 -6.7973e-20)
(1.03893 0.0227227 -4.90318e-19)
(1.04861 0.0214038 0)
(1.05247 0.021191 0)
(1.03656 0.0124381 -6.81971e-21)
(1.03124 0.0122816 7.88069e-19)
(1.03177 0.0173264 9.55779e-19)
(1.02556 0.0212784 0)
(1.02251 0.0218791 0)
(1.03541 0.0263286 4.89148e-19)
(1.0259 0.0281026 0)
(1.02404 0.0277222 0)
(-0.017263 2.02277 0)
(-0.000594448 1.6652 -3.93197e-21)
(-0.00472507 1.76784 -3.20553e-20)
(-0.000197985 1.40917 0)
(-0.00452771 1.57229 -2.41444e-20)
(-0.0106331 1.48641 1.5018e-20)
(-0.00809758 1.42746 0)
(0.386226 1.62946 0)
(0.376592 1.3109 -8.54605e-20)
(0.299549 1.33872 0)
(0.428694 1.3092 2.06953e-20)
(0.479346 1.47573 0)
(0.459819 1.41963 2.01045e-20)
(1.03556 2.66832 -1.54561e-20)
(0.967654 2.39633 -9.18889e-19)
(0.920755 2.18534 1.02733e-18)
(0.851408 2.36547 2.43385e-19)
(0.846985 2.47738 0)
(0.916716 2.4735 0)
(0.930834 2.36139 0)
(0.909813 2.35111 -9.50201e-19)
(0.684585 2.44005 -4.02497e-19)
(0.798306 2.42977 -9.9e-20)
(0.807587 2.40407 7.5177e-20)
(0.694511 2.38413 0)
(0.799811 2.37941 0)
(0.757837 2.393 -3.70214e-19)
(0.76581 2.46678 0)
(0.63818 1.09549 0)
(0.479159 0.891871 -5.25724e-19)
(0.575715 0.942676 -3.318e-20)
(0.517755 1.02639 0)
(0.518201 0.966313 7.8584e-19)
(0.807305 0.890569 -1.2952e-19)
(0.815093 1.02532 0)
(0.790709 0.992346 1.84633e-19)
(0.675771 1.0361 0)
(0.676407 0.939094 0)
(1.16111 2.74557 -2.32861e-19)
(1.13848 2.8092 -1.00831e-19)
(0.926249 2.32172 1.07034e-19)
(0.894239 2.30158 -8.485e-20)
(1.12703 2.71841 0)
(1.08128 2.6877 1.02061e-19)
(1.08593 2.47084 -3.1466e-19)
(0.98036 2.22423 -2.99318e-20)
(0.48962 1.32182 0)
(0.506255 1.05537 -1.2618e-19)
(0.580591 1.16913 0)
(0.848522 0.251563 0)
(0.756056 0.200535 0)
(0.66182 0.154686 0)
(0.839406 0.252483 -6.31997e-19)
(0.726035 0.245634 3.74575e-19)
(0.922076 0.0913467 -4.12752e-19)
(0.924318 0.13333 0)
(0.912561 0.142279 1.78376e-19)
(0.848614 0.118092 7.13186e-19)
(0.81236 0.0790499 -4.46842e-19)
(1.15048 3.34164 -7.10843e-19)
(1.20024 3.26145 0)
(1.14783 3.37107 -1.48204e-18)
(0.637076 3.53327 1.25558e-18)
(0.856428 3.10373 6.75026e-20)
(0.525315 0.780219 6.0905e-19)
(0.420228 0.777773 0)
(0.292047 0.332608 -1.47238e-19)
(0.485223 0.651138 8.53644e-19)
(0.576294 0.323477 -1.88622e-19)
(0.515259 0.463219 2.2652e-19)
(0.672882 0.519501 4.82115e-19)
(0.721514 0.561258 0)
(0.671489 0.57181 0)
(0.638856 0.529212 0)
(1.01255 0.621017 8.70775e-20)
(0.925821 0.562899 -5.10181e-19)
(0.951828 0.594006 3.83791e-19)
(0.980426 0.533798 -3.95766e-19)
(1.0899 0.5001 0)
(1.09893 0.59196 -9.59224e-20)
(0.856058 0.419257 -8.30931e-19)
(0.854107 0.407477 -1.02959e-18)
(0.783109 0.400764 6.302e-19)
(0.792344 0.389065 -6.40843e-19)
(0.841795 0.345001 -5.20494e-19)
(0.787015 0.340721 6.3616e-19)
(1.02679 0.00620205 -4.96713e-19)
(1.02648 0.00643832 1.01135e-18)
(1.02957 0.000343686 6.29656e-19)
(1.03376 0.00123831 -7.58397e-19)
(1.03397 0.00939351 0)
(1.03024 0.0100785 -1.23384e-18)
(0.0645709 1.63831 1.93697e-20)
(0.0532098 1.59148 0)
(0.0916789 1.68734 1.31628e-19)
(0.0988884 1.66854 -1.16777e-19)
(0.0928535 1.55117 2.95453e-20)
(0.0921415 1.55307 0)
(0.0140291 1.69729 0)
(-0.00139742 1.5158 1.07854e-20)
(-8.00109e-05 1.46262 -9.69378e-21)
(-0.00667785 1.56869 5.53998e-21)
(0.0031903 1.88728 1.58434e-20)
(-0.00877532 1.9408 -3.86261e-21)
(0.496378 1.3532 -2.79257e-19)
(0.49499 1.35303 3.06921e-19)
(0.456189 1.30571 -3.66228e-20)
(0.438381 1.28011 8.04045e-21)
(0.643934 1.31335 0)
(0.558397 1.40467 1.02623e-19)
(0.574892 1.41115 -9.99186e-20)
(0.470108 1.30013 3.58229e-20)
(0.525445 1.245 0)
(0.576261 1.20615 0)
(0.652141 2.40004 5.91126e-19)
(0.668088 2.44177 1.26733e-18)
(0.712262 2.4524 -8.73413e-19)
(0.608395 2.42628 -2.02593e-19)
(0.558945 2.51633 2.85982e-19)
(0.508351 2.49149 -7.6265e-19)
(0.976799 2.36802 -5.75128e-19)
(1.00996 2.37985 0)
(0.923854 2.1633 -6.58446e-19)
(1.05261 2.66663 0)
(1.05503 2.6532 0)
(0.590272 2.24894 -1.39944e-19)
(1.0321 3.14849 1.1772e-19)
(0.903456 3.01952 -1.94926e-20)
(0.253776 0.816756 0)
(0.275467 0.654279 -3.183e-19)
(0.450763 0.616554 -3.22028e-19)
(0.370913 1.99224 0)
(0.457505 2.77554 -4.69948e-20)
(0.409323 2.53781 0)
(0.726417 0.671087 -8.35188e-19)
(0.80953 0.694294 1.11189e-18)
(0.829005 0.634557 -1.09817e-18)
(0.702233 0.637035 -1.06501e-19)
(0.75552 0.597177 -4.35384e-19)
(0.997117 2.74581 -8.95406e-20)
(1.04005 2.81016 -1.7314e-19)
(0.625668 2.10701 7.26493e-19)
(0.577089 1.67658 -5.16744e-19)
(0.690048 1.88058 -4.16823e-19)
(0.983942 2.43053 -1.13367e-19)
(0.991789 2.42397 3.03737e-19)
(0.642055 1.81137 2.89465e-20)
(0.435567 1.29964 1.47349e-19)
)
;

boundaryField
{
    wall-4
    {
        type            noSlip;
    }
    velocity-inlet-5
    {
        type            fixedValue;
        value           uniform (1 0 0);
    }
    velocity-inlet-6
    {
        type            fixedValue;
        value           uniform (0 3 0);
    }
    pressure-outlet-7
    {
        type            zeroGradient;
    }
    wall-8
    {
        type            noSlip;
    }
    frontAndBackPlanes
    {
        type            empty;
    }
}


// ************************************************************************* //
