/*--------------------------------*- C++ -*----------------------------------*\
| =========                 |                                                 |
| \\      /  F ield         | OpenFOAM: The Open Source CFD Toolbox           |
|  \\    /   O peration     | Version:  2206                                  |
|   \\  /    A nd           | Website:  www.openfoam.com                      |
|    \\/     M anipulation  |                                                 |
\*---------------------------------------------------------------------------*/
FoamFile
{
    version     2.0;
    format      ascii;
    arch        "LSB;label=32;scalar=64";
    class       volScalarField;
    location    "95";
    object      p;
}
// * * * * * * * * * * * * * * * * * * * * * * * * * * * * * * * * * * * * * //

dimensions      [0 2 -2 0 0 0 0];

internalField   nonuniform List<scalar> 
918
(
0.558934
1.1654
0.000135331
0.558405
-0.012629
1.13238
-0.513977
0.651744
0.539144
-0.103599
-0.054822
0.541067
0.993021
0.758061
-1.12541
-0.0137609
0.65221
-0.381386
0.538281
-0.0768224
0.672295
0.545675
0.548698
0.539275
0.598215
0.730835
0.87391
0.0328217
0.0139376
0.00828544
-0.0121263
-0.0388349
-0.0335574
1.01605
1.0671
1.0898
0.506847
0.334944
-0.379365
-0.453965
-0.439129
-0.53773
0.653556
0.65496
-0.217311
0.653106
0.650563
0.526142
0.538516
0.539431
0.540436
0.539428
0.540806
0.404788
-0.104796
-0.136364
-0.0844282
-0.0774292
0.0502252
-0.0535419
-0.0544471
-0.0543829
-0.0559732
0.45589
0.535573
0.5322
0.545306
0.554581
1.10494
1.0769
1.10303
1.01659
1.03312
0.97104
0.943653
0.779499
0.801124
0.742145
0.729975
-1.55228
-2.49521
-0.540362
-0.292413
-0.0108909
-0.0120662
-0.00668582
0.649632
0.650876
0.652636
0.654014
1.08023
-0.378269
-0.481967
0.538426
0.537239
0.54554
0.546242
0.542264
0.541353
-0.0658963
-0.0625918
-0.0652735
-0.0714756
-0.0694579
0.643948
0.651036
0.539801
0.536801
0.562276
0.582996
0.572654
0.278397
0.608939
0.625031
0.566236
0.726577
0.71847
0.728298
0.847528
0.810488
0.911146
0.93444
0.020071
-0.000402856
-0.0180355
-0.021124
-0.0202926
0.502673
0.495203
0.523115
0.510288
0.512799
0.252622
0.120462
0.419246
0.443589
-0.299134
-0.367893
-0.431034
-0.461019
-0.568613
0.615691
0.655758
0.652873
-0.226507
-0.154432
-0.289679
-0.0809926
-0.144506
0.516384
0.523415
0.518403
0.533984
0.528444
0.53041
0.542796
0.539863
0.541424
0.466741
0.58995
0.331138
0.295377
-0.242646
-0.151524
-0.240712
-0.0673459
-0.0645621
0.0648358
0.0908491
0.0365757
0.0244886
-0.0605917
-0.0562275
-0.0582981
-0.0558342
-0.0577595
0.448594
0.437306
0.468612
0.47619
0.52233
0.523745
0.528123
0.526197
0.894608
0.916927
0.924394
0.898253
-3.4756
-6.24025
0.0287791
0.163969
-0.00695496
-0.0101639
0.00184825
-0.00639536
-0.00067795
-0.00234531
-0.0117408
-0.0131898
-0.00809556
-0.00689017
0.644849
0.64536
1.0036
1.01188
0.978034
0.931291
0.526715
0.528747
0.534218
0.530119
-0.0585733
-0.0607677
-0.0591811
0.650421
0.648151
0.649626
0.239635
0.149236
0.329736
0.359091
0.638652
0.628128
0.637116
0.625835
0.66088
0.941805
0.959909
0.958246
0.966504
1.01061
1.02707
0.992307
0.482048
0.492068
0.486995
0.525933
0.523851
0.52469
0.521141
0.522121
0.520273
-0.0290514
-0.406179
0.490534
0.506326
0.492907
0.494305
0.696226
0.775335
0.653719
0.654526
0.653963
-0.0108882
-0.0695311
0.250312
0.21577
0.387769
0.424399
0.403208
0.865681
0.826167
0.87623
0.849687
0.811055
0.837038
-0.357891
-1.84753
-0.971931
0.509676
0.326121
0.412162
0.00595322
-0.0111266
-0.00630974
1.00444
1.07534
0.645655
0.821163
0.823025
0.697851
0.728337
0.783487
0.708909
0.743934
0.778941
0.760795
0.570905
0.503742
0.520908
0.844369
0.899993
0.118486
0.0557487
0.0120145
0.110232
0.168229
0.141909
1.03497
0.953272
1.02296
0.536564
0.53729
-0.00940111
-0.027115
0.541558
0.541616
-0.0143133
-0.00390466
0.395679
-0.832536
0.0958883
0.530174
0.519992
0.537163
-0.0892619
0.35624
-0.0543417
0.0465481
-0.0124345
0.531491
0.467061
0.426043
-0.00401022
-0.0234434
-0.065621
-0.210828
0.534233
0.532537
0.53663
0.537565
0.53825
-0.023222
-0.0196279
-0.0126488
-0.0596207
-0.0519592
-0.0674074
0.501015
0.520091
-0.171156
0.536782
0.538921
0.538738
0.532026
0.537643
0.535905
-0.0142439
-0.0183393
-0.0208322
0.219164
0.352532
0.631021
0.715557
0.60347
0.38274
0.150331
0.537084
0.599054
0.506422
0.657924
0.651161
0.649235
0.161331
0.0103329
0.170857
0.112676
0.528028
0.526767
0.518241
0.515194
0.532029
0.530138
0.534708
0.531738
0.534692
0.536068
-0.0458691
-0.0720133
-0.0817331
-0.147994
0.31115
0.571404
0.256327
0.285377
0.141566
-0.0495833
-0.0511153
-0.0517405
-0.0581225
9.14551e-05
-0.028223
0.0407972
0.0401459
0.0103325
-0.0151949
-0.0109711
-0.022957
-0.015426
0.524774
0.524666
0.529559
0.538119
0.476751
0.48053
0.445218
0.466109
0.451242
0.389615
0.425319
0.400393
-0.00905972
-0.00212638
-0.00564399
-0.0219122
-0.018254
-0.0399343
-0.0375262
-0.0316114
-0.0284657
-0.0359733
-0.0587109
-0.0625684
-0.168572
-0.285313
0.990194
0.909247
0.143409
0.52337
0.529836
0.526592
0.531536
0.534668
0.53546
0.53316
0.529702
0.520426
0.522128
0.518662
0.519602
-0.101507
-0.244064
-0.0723244
-0.148502
0.148099
0.6298
0.364436
0.299248
0.294795
0.524525
0.897154
0.678232
0.646769
0.635185
-0.348058
0.0347664
-0.28704
0.323045
0.157225
0.632671
0.681289
0.702868
0.651026
0.604521
-0.0953087
0.557741
-0.0768682
-0.0237251
0.179026
0.0528666
0.63674
0.639981
0.645779
0.641033
0.650062
0.642081
0.622783
0.624737
0.640876
0.647092
0.480225
0.249836
0.19999
0.161486
0.644415
0.51429
0.563099
0.48948
0.523252
0.525858
0.524535
0.505852
0.513448
0.508963
0.515547
0.519082
0.527731
0.528215
0.523459
0.525591
-0.0526761
-0.0584773
-0.0228758
-0.13285
-0.125251
-0.188321
-0.056959
0.079148
0.0405541
0.240241
0.34383
0.0555971
-0.0539718
-0.0268575
0.0171829
0.183616
0.212153
0.0760251
0.162142
0.155416
0.135585
0.238555
0.241119
-0.030826
-0.0313903
-0.0355235
-0.039337
0.0178962
0.0898328
0.0988857
-0.0118118
-0.0154459
-0.0494168
-0.0524332
-0.0211061
-0.0261157
-0.0218269
0.00608275
-0.0559968
-0.0239598
-0.0102441
-0.0122093
-0.0110422
-0.015959
0.519463
0.52122
0.521443
0.530438
0.542601
0.557285
0.522821
0.499022
0.489778
0.492784
0.465684
0.47603
0.471832
0.485514
0.506791
0.515309
0.513643
0.516467
0.49879
0.500495
0.487
0.490688
0.465693
0.446265
0.434193
-0.0465903
-0.00906783
-0.0171196
-0.0417949
-0.0127932
-0.0242428
-0.0154632
0.00375381
-0.0133279
-0.0139379
-0.0238238
-0.0325098
-0.032516
-0.0701107
0.0181544
-0.184136
-0.218306
-0.292382
0.892911
1.01694
0.81124
0.584517
0.605935
0.848897
0.932581
0.544048
0.736867
0.759564
0.589865
0.858439
0.528224
0.527818
0.525416
0.524891
0.526113
-0.00488915
0.102746
0.0982085
0.163873
0.279863
0.390326
0.324767
0.199509
0.328254
0.3304
0.621929
0.633702
0.590424
0.614717
0.615711
0.42627
0.501936
0.553601
0.51462
0.567131
0.58895
0.542692
0.576169
0.524897
0.480064
0.476158
0.425966
0.445427
0.42092
0.40414
0.518849
0.495461
0.506386
0.496512
0.518631
0.544707
0.541834
0.564612
0.579637
0.499255
0.454386
0.463614
0.493821
0.455491
0.470962
0.486784
0.237775
0.140851
0.223654
-0.0603544
0.00678012
-0.00426075
-0.0537873
-0.000409981
0.283271
-0.405339
-0.382433
-1.00593
0.508433
0.939099
0.554161
0.533504
0.64974
0.638242
0.642522
0.658978
0.652485
0.632762
0.64061
0.645381
0.590314
0.611683
0.6257
0.623191
0.525513
0.380056
0.3801
0.327318
0.197332
0.237825
0.433191
0.357758
0.282892
0.282945
0.457419
0.343468
0.414299
0.446629
0.377605
0.332214
0.535995
0.601789
0.594837
0.568965
0.478053
0.48945
0.51463
0.548212
0.571538
0.606299
0.514954
0.520914
0.522142
0.519613
0.516879
0.519976
0.520228
0.522805
0.523428
0.526444
0.525509
-0.0499581
-0.0366285
-0.0470329
-0.0583464
-0.0146135
-0.0171611
0.0262825
0.0135894
-0.0138418
-0.00932313
-0.0300253
-0.034199
-0.031431
-0.0241958
0.105865
0.118274
0.10258
0.0632425
0.254971
0.383794
0.458316
0.333488
0.228344
0.252079
0.270246
-0.0112038
0.0130094
0.000607711
0.0404003
0.0332052
-0.0414963
-0.046386
-0.0440976
-0.0331938
-0.0249899
-0.0474159
-0.0563145
-0.0447674
-0.0487701
-0.0514744
-0.0581235
0.501304
0.494794
0.496387
0.490346
0.489056
0.503256
0.507559
0.509565
0.515104
0.517341
0.507397
0.512824
0.516768
-0.0174715
-0.0410892
-0.0435724
-0.0385824
-0.0387737
-0.0370108
-0.039723
0.131394
0.0620138
0.0651147
0.0163624
-0.119
-0.0602558
0.495142
0.493016
0.48089
0.724906
0.574116
0.494775
0.59152
0.697518
0.284676
0.476981
0.313979
0.891594
0.788651
0.93481
0.546145
0.250915
0.418045
0.456241
0.273146
0.351525
0.324193
0.21434
0.244567
0.285354
0.382262
0.269714
0.248124
0.0046562
0.195142
0.304848
0.286932
0.409709
0.469184
0.271549
0.191108
0.146192
0.606209
0.625464
0.638724
0.611108
0.633767
0.583211
0.575052
0.59053
0.598822
0.592281
-0.735464
-0.441755
-1.39001
-0.719087
-0.260783
0.5385
0.51545
0.772191
0.641845
0.666927
0.651912
0.616253
0.588042
0.613288
0.633145
0.338733
0.449694
0.424479
0.431184
0.333957
0.263483
0.563122
0.560824
0.594449
0.618437
0.589344
0.620131
0.512759
0.512478
0.511943
0.508181
0.506444
0.508787
0.0610824
0.0283672
0.070043
0.0525704
0.0303317
0.0183336
-0.0192875
-0.0297174
-0.0354447
-0.0341674
-0.0195634
-0.0159055
0.174849
0.111491
0.0343215
0.0627809
0.00062191
-0.0679143
-0.0878334
0.0193993
0.115443
0.105904
0.41132
0.658535
0.479282
0.645925
0.489468
0.54484
0.469084
0.459894
0.484013
0.382427
0.463141
0.262098
-0.247273
-0.157542
0.797157
0.807305
0.581373
0.411316
0.177087
0.349373
0.53982
0.46849
0.503208
0.571479
0.557891
0.039147
0.0929914
0.391242
0.618103
0.246506
0.237
0.230606
0.418493
0.334867
)
;

boundaryField
{
    wall-4
    {
        type            zeroGradient;
    }
    velocity-inlet-5
    {
        type            zeroGradient;
    }
    velocity-inlet-6
    {
        type            zeroGradient;
    }
    pressure-outlet-7
    {
        type            fixedValue;
        value           uniform 0;
    }
    wall-8
    {
        type            zeroGradient;
    }
    frontAndBackPlanes
    {
        type            empty;
    }
}


// ************************************************************************* //
