/*--------------------------------*- C++ -*----------------------------------*\
| =========                 |                                                 |
| \\      /  F ield         | OpenFOAM: The Open Source CFD Toolbox           |
|  \\    /   O peration     | Version:  2206                                  |
|   \\  /    A nd           | Website:  www.openfoam.com                      |
|    \\/     M anipulation  |                                                 |
\*---------------------------------------------------------------------------*/
FoamFile
{
    version     2.0;
    format      ascii;
    arch        "LSB;label=32;scalar=64";
    class       surfaceScalarField;
    location    "95";
    object      phi;
}
// * * * * * * * * * * * * * * * * * * * * * * * * * * * * * * * * * * * * * //

dimensions      [0 3 -1 0 0 0 0];

oriented        oriented;

internalField   nonuniform List<scalar> 
1300
(
3.75095
5.62643
-3.26176
3.75095
-7.75532
5.62643
-4.41587
4.41587
-0.349679
0.349679
1.87638
1.87457
-2.69795
2.69795
-2.0243
2.0243
-2.52138
2.52138
-5.24642
5.24642
-5.06945
5.06945
4.64782
-4.64782
-6.31852
6.31852
-0.93589
0.93589
-3.69882
3.69882
3.16957
-3.16957
-1.90684
1.90684
0.0932458
-0.0932458
-0.553467
4.30442
3.19749
3.19749
-2.00605
2.00605
-4.86979
4.86979
6.21794
-6.21794
5.23951
-5.23951
-1.97775
-2.49401
1.80109
-11.4607
-5.95423
-5.95423
-8.44036
8.44036
-2.81393
2.8125
2.94647
-2.94647
-1.76172
1.76172
-4.37963
-0.0362381
-4.37963
4.38454
0.0313275
4.38454
-0.455201
0.105522
-0.455201
4.01946
-4.01946
0.244134
0.105545
0.244134
3.06541
-3.06541
-1.87712
3.75351
1.87383
-1.8719
6.17633
-1.87905
3.75362
-6.01032
6.01032
-2.94469
0.246738
-2.94469
2.48462
0.213331
2.48462
-6.85044
6.85044
-2.0831
0.0587945
-2.0831
1.97104
0.0532596
1.97104
2.88227
-2.88227
-2.62757
0.106191
-2.62757
2.39249
0.128892
2.39249
0.3535
5.27293
-5.97993
8.79243
-5.27293
0.0265143
5.20829
0.0381287
5.20829
-5.1061
0.0366512
-5.1061
5.0133
0.0561526
5.0133
4.72999
-0.0821764
4.72999
-4.76855
0.120731
-4.76855
-3.36892
-4.05635
-6.46876
0.150243
-6.46876
-1.02513
0.0892431
-1.02513
0.82327
0.11262
0.82327
-3.68685
3.68685
-4.12201
0.423186
-4.12201
3.12394
0.04563
3.12394
1.86849
1.88247
5.61944
-5.61944
2.44987
-1.87663
-0.0302074
-1.87663
-1.98552
-3.25399
1.98552
-0.0786787
-0.153992
0.247238
-0.153992
3.15945
0.0380317
3.15945
2.23516
0.157327
-2.23516
0.229112
3.28146
-3.28146
1.33433
0.671723
1.33433
-5.56329
5.56329
4.95724
0.0560506
-4.95724
0.0874581
6.15665
0.0612908
6.15665
-6.19956
-0.018377
-6.19956
2.5278
-5.02181
-2.66153
6.13653
0.181985
-6.13653
0.182303
2.91847
0.0279985
2.91847
-2.91773
2.91773
-2.98488
0.038407
-2.98488
-2.16052
0.398799
-2.16052
1.46362
0.298102
1.46362
-4.28211
-0.0975177
-4.28211
-4.27331
0.151297
4.27331
0.111232
1.12803
-1.12803
-0.587782
0.132581
-0.587782
-4.14604
-0.136072
4.14604
-0.126576
-3.90579
-0.113675
-3.90579
-3.02464
0.0397648
3.02464
0.0407648
3.11291
0.0465409
-3.11291
0.0475075
-1.87081
3.75328
-1.88014
3.75397
-5.63119
-0.37913
-5.63119
6.32128
-0.310967
6.32128
3.33967
0.35915
-3.33967
0.394987
2.3129
0.171717
2.3129
-6.81087
-0.0395652
-6.81087
6.8373
0.013142
6.8373
2.18023
0.132674
-2.18023
0.0971288
1.92429
0.0467525
1.92429
2.90304
-0.0207732
2.90304
-2.87609
-0.0061754
-2.87609
2.79013
-2.79013
2.71506
0.0750663
-2.71506
0.0874898
-11.133
11.1146
-0.035139
-11.0979
5.17315
5.17315
4.1543
0.575699
4.1543
-4.98893
0.220378
-4.98893
2.69996
-5.36149
3.10836
-6.47729
4.65845
-16.1192
4.28351
-8.33986
6.70698
-6.70698
6.59686
0.110124
-6.59686
0.1281
-1.14369
0.118561
-1.14369
-3.08665
-0.600206
-3.08665
4.32694
-0.640082
4.32694
-3.02784
3.02784
-3.07734
0.0494986
3.07734
0.0466047
1.88616
0.0381317
-1.88616
0.00952449
0.178615
0.065519
-0.178615
0.0246233
3.49724
-0.215789
3.49724
-3.08172
-0.199738
-3.08172
-1.24396
0.10027
1.24396
0.0903621
-5.8128
0.249511
-5.8128
-11.1908
0.0929701
-11.1527
-6.10659
-6.10659
2.33377
11.1262
-2.89389
0.0178001
2.89389
0.0245809
2.97427
0.0535686
-2.97427
0.0565431
-2.85693
0.0668057
2.85693
0.060797
-2.53534
0.374817
-2.53534
-1.06505
1.06505
-1.2282
0.163152
1.2282
0.235418
1.40279
-0.274756
1.40279
0.707505
0.115765
-0.707505
0.119723
-3.80219
-0.103598
-3.80219
6.55725
-0.235963
6.55725
-2.96567
-0.116042
2.96567
-0.0626363
-0.0333397
11.148
-5.13981
0.0337094
5.13981
-11.2093
11.243
-3.2054
0.670066
3.2054
0.948895
5.28361
0.279687
-5.28361
0.294678
6.78938
0.0479181
-6.78938
0.0823973
-2.59435
-0.4923
-2.59435
-5.05058
-0.580608
5.05058
-0.72364
-11.4738
-0.205826
11.6796
-11.4176
6.01863
0.138021
-6.01863
11.381
-1.02554
-0.102495
1.02554
0.0395076
1.73166
-0.328874
1.73166
3.69675
-0.199502
-3.69675
-0.105443
-6.71244
-0.0984315
6.71244
-0.155197
-2.1492
-0.44515
2.1492
-0.417534
-4.26714
4.30517
1.90919
-2.37623
-2.64558
-5.63021
1.85184
1.90144
4.30171
-10.1194
-5.99974
-9.93712
7.26076
-6.96608
-9.23019
9.14801
7.91619
-8.02987
-5.78465
5.83125
6.483
-6.44224
1.87885
1.87466
8.04595
-7.79921
-15.5574
15.1782
7.58576
-7.52697
15.7125
-15.7521
-17.7948
17.8427
-5.7073
5.81349
-6.74102
6.73485
-6.97736
6.91473
-2.83756
-3.63972
13.0765
-12.9263
8.65913
-8.68933
-8.64633
9.06952
3.38261
0.922561
3.42915
-1.88213
3.76098
-1.87149
3.78068
2.75833
-5.59589
2.60316
-5.24874
4.40402
4.25511
-4.32534
-1.30488
-5.92503
5.95303
-5.81431
5.8751
9.17151
-9.20775
-1.88518
3.75984
-1.86879
3.77023
-3.42499
-2.35965
3.37936
0.922345
8.04706
5.02946
-8.22905
-1.70807
-8.05135
7.85185
-8.23604
8.03631
-0.433036
5.81929
-5.38625
4.43675
-1.56654
7.38583
5.69422
5.91459
5.86583
-5.58614
1.10025
-6.4865
-6.39904
-2.19984
2.33242
2.08429
-1.97874
6.16728
1.74892
6.0407
-5.77309
-2.25678
-5.87669
3.82034
2.01091
3.86984
4.07857
2.40443
4.11834
3.03039
-3.03602
0.0056369
-3.05673
6.08712
0.723813
-5.41639
-4.49404
4.98847
3.05748
5.2018
-5.57137
-2.22784
-5.17638
-9.51158
-6.04577
-10.0922
10.0535
5.12476
9.7425
-11.9207
11.7655
4.81469
2.77107
4.86795
-4.96398
-2.56299
-4.86685
11.6243
-2.64785
-8.97644
-10.2877
-7.50706
10.2746
5.43791
10.9308
6.91191
11.0132
4.4144
7.20988
-9.85232
2.34526
-3.86832
-1.83898
-3.78083
3.6759
2.1376
3.80479
-4.21771
-2.52331
-4.19991
-4.29603
-2.68133
4.3168
2.41804
-4.41859
-3.81745
4.53463
2.38009
4.03612
-10.0359
4.30375
-7.94347
-9.16959
-3.75668
-9.04149
3.5611
2.61431
-6.17541
-2.03479
8.58841
-4.3333
7.28353
-5.22006
-3.46927
-5.21054
-6.90756
-1.73877
-6.75627
-8.85356
8.36126
-9.14899
8.50891
12.47
-5.62517
-6.84488
-3.96848
-2.47376
3.92097
-0.491826
-3.71045
3.71609
0.0505238
3.8312
4.75376
4.26194
-3.88508
-1.92922
-3.82854
3.82506
2.05004
3.89187
6.86177
2.30975
6.89309
-6.63685
-2.5709
-6.73437
9.01384
-8.61504
2.83068
-2.73041
5.40379
2.63251
-5.188
-2.86335
6.20762
-3.22009
-2.98753
-12.2067
10.521
1.68572
-4.82088
-0.384125
-0.477371
-5.48374
-3.74645
5.36301
0.551586
11.0726
7.32612
-5.51217
5.76168
6.16746
6.22351
-0.175533
5.78959
-5.11952
5.25997
-2.61971
-2.64026
5.49383
-5.6299
-1.24054
-5.54834
4.3078
0.410802
1.3857
-1.13847
-1.74543
-0.454407
-1.62571
1.17408
0.910203
1.2396
0.960381
1.37204
-2.93509
0.501179
2.43391
-1.97471
-1.47756
-3.86405
-1.13476
4.9988
5.74889
2.10296
-5.64344
-0.233241
2.50721
-2.39459
-0.81834
-3.04571
2.22899
-3.04733
-3.66315
-2.10018
5.76333
-3.36984
-0.458702
3.31627
0.553573
-3.82731
-2.09772
3.7889
0.329435
-3.12836
6.19088
-3.06252
-5.05758
2.52742
3.5597
4.53833
-4.78958
2.44785
2.34173
-1.22988
4.25359
0.948213
4.42531
-6.96808
4.74024
5.82263
3.24689
-6.18178
1.0054
-5.96269
8.55216
-7.38049
-1.17167
4.16964
4.38252
7.03704
5.43301
-5.65602
12.6931
-1.20818
-6.17231
7.17087
-3.92398
4.85911
-8.78309
-10.2921
4.11981
-9.10077
10.875
-1.77424
-3.61363
-8.30708
12.7144
-1.19946
-11.5149
8.54304
-4.29627
-4.41978
8.71605
-6.94412
6.98277
-1.99249
-4.99028
-10.0722
-5.67983
10.1707
1.59484
-9.94488
12.2901
-2.735
4.12147
0.746476
4.16822
3.30737
-5.49378
2.18642
3.63675
-5.62924
2.07832
-7.5721
-6.71217
12.0436
-5.33146
-10.4689
-9.48909
-0.979764
2.53573
9.75441
-9.44764
7.40726
2.04038
3.30078
0.591089
-3.37584
-0.404988
0.233379
4.51289
-4.74627
4.03817
4.19549
3.26235
1.25053
3.84574
2.10729
-3.87032
-0.329593
-4.16429
1.48296
-1.74625
-3.6954
5.17836
-4.06759
0.372188
-2.74418
-3.49762
6.2418
-4.58316
3.03465
3.15624
5.08469
-4.91377
1.41615
-2.39273
-2.52104
2.65144
-4.39769
1.9952
3.18316
4.37529
0.557839
5.87023
6.17341
-8.48453
0.541064
11.2029
-9.49479
2.4579
8.5553
-9.86516
0.376073
-8.66542
1.00617
-5.33946
-5.16925
5.21137
-6.95013
-3.57173
6.23378
0.659314
-6.34501
-0.411255
-6.0173
-2.83626
-6.46245
-3.03476
-6.11423
-8.69078
-1.64682
-7.04396
6.71444
-6.66282
-3.42937
7.38646
1.12244
-7.39106
7.28856
-7.46888
7.14001
0.0954875
3.6206
4.35742
1.88367
-2.39072
4.27439
-5.13313
7.44288
-8.74548
3.61235
4.22016
-6.79106
-4.52533
5.00597
4.00788
5.30407
8.85972
-10.3174
1.45771
-10.618
11.9486
-1.33054
-16.3659
5.74785
-7.50614
2.43257
0.39811
2.55113
0.540816
2.49854
-3.03936
-2.1896
-2.09924
-2.44347
-3.46488
5.90835
1.08245
-3.5326
2.45015
-3.56744
4.64989
-0.221387
-3.31122
5.26508
-2.76654
5.66319
-3.78883
1.87437
3.44108
5.75469
-2.31361
4.39606
-1.76355
1.93217
-4.24578
-1.53271
-2.95426
5.09185
-3.28754
3.65973
-0.345586
4.00532
-4.0458
0.825716
-0.783449
3.41205
3.64116
4.31731
-3.06678
2.91599
-4.67954
-1.32978
-4.1217
-0.938535
-0.252913
-3.6874
3.94031
5.95849
-6.2114
-5.22426
9.50613
-4.28186
7.6749
-5.37115
-2.30375
-4.23844
-4.3766
3.86363
1.92596
9.60086
0.206277
-5.57743
-4.91324
-3.96435
3.09797
2.162
-1.68839
3.37411
2.16576
-0.78006
0.436055
0.803548
1.76203
-1.32598
0.310295
1.45174
-0.828172
1.69136
0.815852
-1.80712
0.181411
-1.35554
3.58453
1.07838
-1.98858
0.662603
0.981932
-3.60164
5.0849
-2.69321
-2.39169
6.06683
1.14587
-3.83908
4.40247
-3.99167
2.40766
-3.54242
-1.43142
-5.42309
-3.67417
-2.51421
4.96437
-3.39414
5.4971
1.30121
-5.26386
6.56507
-3.73111
1.63094
-3.03893
3.85478
-0.918778
-2.12015
2.90064
2.86269
-3.09132
0.0456119
-0.190679
2.40145
-2.59213
-0.645888
-2.6206
-4.57374
4.90318
-2.10507
4.55292
2.16932
-1.91735
6.47027
1.80863
-3.72597
-3.24895
-3.70766
-1.38424
3.15408
-0.568048
-4.2988
-5.55833
4.16613
0.259181
-7.08411
7.90185
-0.817739
-4.02664
-0.713604
4.88324
-6.09755
0.468306
-4.01922
3.88263
4.83084
5.09002
-11.2942
-0.220765
-6.16942
1.11909
-7.28851
5.50161
-3.52442
7.64424
-10.2911
6.86171
-9.16864
6.47257
-0.815942
6.23348
-4.04706
2.74296
-8.42279
-6.82795
5.57088
-2.79981
6.31736
-3.18124
9.4986
-5.91624
5.35014
4.14846
-1.01888
-4.19165
-5.36484
4.34596
-0.0147004
4.15352
4.98048
-2.87319
4.65089
2.27011
-4.66284
-2.12758
-6.49625
1.83341
-3.34002
-1.92141
3.75482
3.16328
3.75436
1.23378
-3.34938
7.20042
-8.18019
-1.86896
-3.30028
5.35854
-1.01258
3.45019
-6.75047
-1.88927
4.77121
-0.776266
-3.99495
0.853959
-4.42569
1.67593
-6.10162
5.2742
-5.68546
2.22029
-9.72643
-5.17077
-5.13127
-2.25589
-5.21299
-7.54866
5.29277
-1.80082
5.48775
-8.47604
7.69977
-3.47253
8.7653
-5.41321
-1.04924
5.83075
1.30926
10.0746
0.228224
-4.75355
-1.928
3.82513
-1.89713
1.16997
-3.45917
0.365957
2.50397
3.56286
-6.81177
0.0207137
-4.73284
-3.90844
7.91632
5.59769
11.5562
1.23874
9.09403
-1.17772
10.3328
4.12635
4.36177
-2.97524
4.43295
0.965071
4.57742
-0.927168
2.80153
1.62397
1.71321
0.68138
2.30371
1.33745
3.12942
0.0900615
-2.00917
4.61444
-8.57879
-0.962985
-8.00309
1.14492
5.7015
-4.55658
2.9022
-0.740203
1.00507
-0.143437
-1.14059
1.28402
-2.7837
-1.92065
-0.468908
-1.68864
2.35124
1.89589
-1.88233
-0.901368
0.348378
-4.02255
3.19404
-3.14843
-0.285741
6.27933
-2.81327
0.221142
-1.18233
-2.39946
-2.85386
2.67245
6.17641
0.293864
3.11388
5.19704
3.09933
0.226135
3.87927
-5.65351
-3.69284
-5.87428
-0.372663
4.51058
1.76265
7.99175
5.91111
4.89853
-1.85195
-10.0321
6.49085
-2.0579
5.16031
-1.16536
-4.93625
5.06369
2.37918
-5.72301
0.0375482
-4.8987
-6.95661
-0.509439
8.20921
-9.56512
8.51588
5.67962
1.36433
-4.39051
-0.740754
4.22736
0.13441
10.4672
-1.1313
-6.68747
7.81877
-4.5702
3.60722
0.728965
2.64515
2.01299
1.27278
-5.41468
-9.97127
-2.07379
-1.52785
-4.46548
0.533325
-2.42922
6.20878
-2.60157
3.90503
5.2172
6.22228
-2.12603
-4.08537
6.4079
-2.50286
3.71941
)
;

boundaryField
{
    wall-4
    {
        type            calculated;
        value           uniform 0;
    }
    velocity-inlet-5
    {
        type            calculated;
        value           uniform -3.75095;
    }
    velocity-inlet-6
    {
        type            calculated;
        value           uniform -5.62643;
    }
    pressure-outlet-7
    {
        type            calculated;
        value           nonuniform List<scalar> 8(3.26176 7.75532 4.47176 9.65962 7.42527 5.18933 5.80832 8.94196);
    }
    wall-8
    {
        type            calculated;
        value           uniform 0;
    }
    frontAndBackPlanes
    {
        type            empty;
        value           nonuniform List<scalar> 0();
    }
}


// ************************************************************************* //
