/*--------------------------------*- C++ -*----------------------------------*\
| =========                 |                                                 |
| \\      /  F ield         | OpenFOAM: The Open Source CFD Toolbox           |
|  \\    /   O peration     | Version:  2206                                  |
|   \\  /    A nd           | Website:  www.openfoam.com                      |
|    \\/     M anipulation  |                                                 |
\*---------------------------------------------------------------------------*/
FoamFile
{
    version     2.0;
    format      ascii;
    arch        "LSB;label=32;scalar=64";
    class       volVectorField;
    location    "95";
    object      U;
}
// * * * * * * * * * * * * * * * * * * * * * * * * * * * * * * * * * * * * * //

dimensions      [0 1 -1 0 0 0 0];

internalField   nonuniform List<vector> 
918
(
(0.98516 -0.000508478 0)
(0.00501799 2.96625 0)
(0.00954796 0.875629 0)
(0.979705 0.00214493 0)
(-0.0124843 2.06235 3.76558e-20)
(-0.00705299 2.9488 -2.42283e-18)
(0.824444 1.17106 4.51534e-19)
(0.104014 0.0794628 -1.45596e-20)
(0.999909 -0.00027548 0)
(0.0662851 0.742344 0)
(0.0203666 0.480506 0)
(0.731843 0.00723322 0)
(0.0111372 2.93036 0)
(0.00268663 2.79544 0)
(-0.0180654 3.14472 7.83873e-19)
(-0.0208153 1.91981 1.21394e-20)
(0.286689 0.0626377 1.0195e-18)
(0.190209 1.14848 3.16403e-19)
(0.962709 0.00501237 0)
(0.00786573 0.40666 0)
(-0.00498867 0.0195206 -6.66017e-19)
(1.00197 -0.00497407 0)
(1.00023 -0.009783 0)
(0.975741 -0.00643825 0)
(0.598036 0.0312829 0)
(0.01393 2.64272 0)
(-0.0148286 2.90999 8.88103e-19)
(0.0168868 0.91925 0)
(-0.0207807 1.18448 0)
(0.0196732 0.903347 0)
(-0.0158453 2.58431 0)
(-0.00141177 2.11637 -3.00747e-20)
(-0.0112606 1.8996 0)
(-0.0205931 2.98761 -8.69502e-23)
(-0.0166782 3.00528 1.88275e-18)
(0.00209884 3.00016 0)
(0.871485 -0.00966156 0)
(0.399338 0.927344 1.81772e-19)
(0.811216 1.18449 -5.16613e-19)
(0.962551 1.03099 5.63444e-19)
(0.678554 1.27643 -1.05281e-19)
(0.678007 1.25057 6.02522e-19)
(0.133734 0.119122 1.42023e-20)
(0.140896 0.0602569 0)
(1.16837 0.567284 0)
(0.0978071 0.0890793 6.39754e-20)
(0.0724751 0.0546527 -6.63999e-20)
(0.919932 -0.00745794 0)
(1.00027 0.00016299 0)
(0.999909 0.000340106 0)
(1.00363 -0.00775684 0)
(1.00096 -0.000916686 0)
(1.00017 3.8566e-05 0)
(0.0726021 1.82573 -7.73715e-19)
(0.0330725 0.945612 0)
(0.0985275 0.82242 0)
(0.0150776 0.89313 0)
(0.0416513 0.66056 0)
(0.00732575 2.01619 0)
(0.00274691 0.770383 0)
(0.0199503 0.504372 0)
(-0.00181326 0.758162 0)
(0.0143445 0.459583 0)
(0.842251 -0.0156542 0)
(0.842374 0.0272209 0)
(0.757679 0.00413421 0)
(0.800702 0.0295376 0)
(0.700815 0.0192505 0)
(0.0146785 3.00041 8.97452e-19)
(0.0114795 3.00814 0)
(0.00609562 3.00272 0)
(0.0135459 2.99739 1.01714e-23)
(0.00794688 2.95847 -1.33383e-18)
(0.014499 2.98198 0)
(0.0109045 2.90356 0)
(0.0240824 2.93074 2.02713e-24)
(0.00477782 2.8253 0)
(0.0305038 2.91679 0)
(-0.00467445 2.74593 0)
(0.30286 3.53484 0)
(-0.131444 3.61493 0)
(0.136334 3.23445 -7.29456e-19)
(-0.0143114 2.97483 0)
(-0.028144 1.98718 0)
(-0.00706311 2.17033 -1.19731e-20)
(-0.0146452 1.9283 6.74755e-21)
(0.337185 0.137172 -3.53939e-19)
(0.317323 0.0378607 -3.44048e-19)
(0.291194 0.139885 -1.06025e-18)
(0.250199 0.0678424 -6.88654e-19)
(0.229884 0.986336 0)
(0.273631 1.29786 -3.68682e-19)
(0.369134 1.23415 6.15575e-19)
(0.987419 0.00858323 0)
(0.94184 0.00580157 0)
(1.0003 0.00058181 0)
(1.00286 0.0093105 0)
(1.00301 0.00847648 -2.75409e-18)
(0.991906 0.00969286 2.07978e-18)
(-0.0110677 0.746187 0)
(0.0134098 0.416758 0)
(-0.0561835 1.00867 0)
(-0.032737 0.797076 0)
(0.000523891 0.408277 0)
(-0.0908547 0.0899385 2.06708e-19)
(0.0462422 0.0641428 0)
(0.993557 -0.00836839 0)
(0.954475 -0.00653438 0)
(0.743494 0.0302193 0)
(0.677814 0.0287663 0)
(0.660644 0.0265589 0)
(0.973101 -0.00704749 0)
(0.585083 0.0740331 0)
(0.45857 -0.000845701 1.54542e-18)
(-0.0372655 2.8612 6.47814e-19)
(0.0406553 2.91036 0)
(0.0534211 2.88649 0)
(-0.00454436 2.70147 0)
(-0.0131368 2.98517 8.39374e-19)
(-0.0177877 2.89497 0)
(-0.0154282 2.98804 -2.60591e-18)
(-0.0132303 2.92517 8.9283e-19)
(-0.0393082 1.35573 0)
(-0.00853426 1.38822 0)
(-0.00729473 2.13552 5.8049e-22)
(-0.00639081 2.09713 0)
(-0.0231639 1.90724 0)
(0.938718 -0.00734826 0)
(0.857693 -0.00997319 0)
(0.862535 0.00574057 0)
(0.949682 -0.0077826 0)
(0.88415 -0.00820191 0)
(0.510212 1.11986 -2.29367e-19)
(0.559552 1.17099 0)
(0.364211 0.872067 3.37631e-20)
(0.307451 0.73108 0)
(0.924864 1.06695 -1.55604e-19)
(1.04448 0.876356 3.18179e-19)
(0.361649 1.36063 0)
(0.530316 1.33216 0)
(0.551227 1.27097 0)
(0.121444 0.183611 -3.04041e-19)
(0.162541 0.116005 0)
(0.174181 0.100054 1.89521e-19)
(1.01504 0.930586 0)
(1.08929 0.783562 0)
(1.11474 0.725257 -2.54254e-19)
(1.14771 0.62687 0)
(1.19745 0.409435 5.79443e-20)
(0.957817 -0.00867931 0)
(0.962548 -0.0100189 0)
(0.901814 -0.00798928 0)
(0.984213 -0.00913939 0)
(0.974729 -0.00932099 0)
(0.937156 -0.00637551 0)
(1.00019 0.00234125 0)
(1.0009 0.00141834 0)
(0.999909 0.000856025 0)
(0.0355716 2.07059 4.2865e-19)
(0.118322 1.76879 0)
(0.0182375 2.18391 6.59349e-19)
(0.0458616 1.88 -5.49534e-19)
(0.107405 1.15097 -2.59088e-19)
(0.0503466 1.0269 0)
(0.144554 0.988475 0)
(0.00882247 0.845799 0)
(0.0216465 0.596209 0)
(-0.000751424 2.24069 -7.9691e-22)
(0.0162484 2.01977 0)
(-0.00165733 2.24377 -2.65984e-20)
(0.00876487 2.02629 3.97573e-20)
(0.00605466 0.813913 0)
(0.00469061 0.789143 0)
(0.0160798 0.545447 0)
(-0.00543204 0.748584 0)
(0.00799475 0.440291 0)
(0.938948 0.00989077 0)
(0.851113 -0.0145895 0)
(0.92797 0.000513716 0)
(0.842957 -0.0128709 0)
(0.809303 0.00122596 0)
(0.899279 0.0208744 0)
(0.87532 0.0244257 0)
(0.783109 0.00133866 0)
(0.00554403 3.06474 -8.339e-21)
(0.0167153 3.0577 0)
(0.0146185 2.96899 0)
(0.00864854 2.87619 0)
(0.916922 3.94441 0)
(1.22917 3.27841 9.2122e-19)
(0.0682073 3.0674 0)
(-0.0298693 2.90126 0)
(-0.0114047 1.41194 0)
(-0.0337634 1.70278 0)
(-0.0202729 1.54228 0)
(-0.0312166 2.54398 -9.38376e-21)
(-0.0159258 2.23881 0)
(-0.0217079 2.38472 0)
(-0.000615273 1.95487 9.04482e-22)
(-0.00364531 2.24071 -1.08e-20)
(-0.00549607 2.20517 -7.0417e-21)
(-0.00847688 1.93971 0)
(0.387006 0.120778 5.41284e-19)
(0.367175 0.0238675 -5.31169e-19)
(0.258001 1.58376 0)
(0.278325 0.759622 -3.16692e-19)
(0.176719 1.67121 -1.04906e-18)
(0.225435 1.22152 1.05133e-18)
(0.901899 0.00622257 0)
(0.967317 0.0112168 0)
(0.974506 0.0108404 0)
(0.923246 0.00633288 0)
(-0.0084301 0.744326 0)
(-0.00927433 0.741818 0)
(0.0086986 0.421574 0)
(0.086884 0.0671523 5.87602e-19)
(0.0841487 0.0391112 -6.89085e-19)
(0.0469573 0.0493842 0)
(1.10245 0.0872894 2.71067e-20)
(1.08441 0.040079 0)
(1.01547 0.0405057 0)
(0.908841 -0.00494245 0)
(0.439592 0.1036 0)
(0.498677 0.087117 -2.47045e-18)
(0.41053 0.017475 9.24378e-19)
(0.00849179 2.98027 6.981e-19)
(-0.0332109 2.86451 4.53557e-20)
(0.0036089 3.0503 -1.76759e-20)
(0.0202286 3.04329 6.28819e-19)
(-0.0149831 2.99659 2.93419e-20)
(-0.0129577 2.94949 -1.18044e-22)
(-0.0172654 3.01189 -5.43642e-19)
(0.0149374 3.02357 3.93887e-19)
(0.00744716 3.03692 -6.23446e-19)
(0.93427 -0.00113443 0)
(0.939654 -0.00313966 0)
(0.846277 -0.00945868 0)
(0.956361 0.0120861 0)
(0.942372 0.0135051 0)
(0.881267 0.00569653 0)
(0.91632 0.0173919 0)
(0.925428 0.0153695 0)
(0.837058 0.00305309 0)
(0.712596 1.39656 3.61206e-20)
(0.74602 1.50514 0)
(0.178664 0.309616 7.06095e-20)
(0.229443 0.666478 5.6736e-19)
(0.260983 0.715619 -3.31536e-19)
(0.260182 0.513552 6.60256e-19)
(0.347271 0.811806 1.60001e-18)
(0.141312 0.230325 3.77733e-19)
(0.250761 0.140732 7.28583e-19)
(0.212368 0.131143 1.88669e-19)
(0.212401 0.0815652 3.57105e-19)
(1.18635 0.467677 6.72458e-20)
(1.20068 0.258985 6.21556e-20)
(0.0104461 2.23275 2.5364e-19)
(0.0402936 1.94851 0)
(0.972009 0.0296876 0)
(0.944179 0.0140856 0)
(0.870271 -0.0177056 0)
(0.011375 3.07434 0)
(0.0196346 2.94402 1.14722e-18)
(0.0164009 2.95633 0)
(0.00639305 2.85061 -1.13821e-18)
(0.0062401 3.09074 2.7798e-19)
(0.00717699 3.08247 0)
(0.778639 1.80603 -1.56666e-19)
(1.23688 2.48039 3.96103e-19)
(0.760607 1.94527 -1.2181e-18)
(0.0195374 2.98028 -5.99036e-19)
(0.0346739 2.99837 0)
(-0.0346984 2.87617 0)
(-0.00382351 2.22372 -1.3264e-20)
(-0.00312466 2.24483 1.76522e-20)
(0.0020642 1.98916 -7.36459e-21)
(0.278232 1.39376 1.02715e-18)
(0.240479 0.555836 -7.04131e-19)
(0.063699 1.99556 7.62508e-19)
(0.134864 1.88185 -9.10607e-19)
(0.179864 1.51226 9.53501e-20)
(0.00159118 3.11904 -1.7256e-18)
(0.0141886 3.11863 1.8624e-18)
(-0.0091233 2.98114 7.68503e-19)
(-0.00420295 2.97739 -7.23427e-19)
(-0.0209024 2.88076 -7.82704e-19)
(0.00850776 3.10023 -2.06581e-18)
(0.00226642 3.10535 2.03045e-18)
(0.283034 0.693748 0)
(0.248413 0.681928 -1.18272e-18)
(0.0952926 0.223257 5.2506e-19)
(0.358501 0.939729 1.11802e-18)
(0.19641 0.277005 -1.72384e-18)
(1.19065 0.176587 6.25153e-20)
(1.20099 0.314052 0)
(1.17901 0.123805 -5.32986e-21)
(0.0017328 2.25197 -1.4577e-21)
(0.00514215 2.24299 0)
(0.0247143 1.98458 0)
(0.339544 1.30264 -3.68592e-19)
(0.375342 1.15173 -8.02391e-19)
(0.211195 0.379862 1.43156e-18)
(1.00588 -0.0108219 0)
(1.00767 -0.00762972 5.08039e-19)
(-0.0331308 1.33727 0)
(-0.0449627 1.34024 0)
(1.00221 0.00351727 1.81276e-21)
(1.00366 0.00947419 1.0374e-18)
(-0.0198455 2.52897 1.1894e-20)
(-0.0246619 2.57155 0)
(0.0331779 3.17617 3.92531e-19)
(0.387659 3.47962 0)
(1.17942 0.66924 -5.59471e-20)
(1.01282 0.0131551 -2.13298e-21)
(1.02137 -0.0102584 0)
(1.0017 0.000138445 8.11881e-23)
(0.113295 1.37449 0)
(0.143136 2.56166 0)
(0.0358852 1.31638 0)
(0.000868283 2.61383 2.68582e-20)
(-0.0203392 2.57153 1.31545e-22)
(0.999645 0.0311196 2.52073e-21)
(1.06335 0.0049457 0)
(1.09801 0.0256359 0)
(-0.032016 1.74692 0)
(-0.0183122 2.57295 0)
(-0.00458797 1.32729 0)
(0.311854 1.48755 -1.66054e-19)
(1.01131 -0.00960602 0)
(1.0094 -0.0149132 0)
(1.00237 0.000764673 6.49316e-19)
(1.00547 -0.00479281 -7.63121e-19)
(1.00118 -0.000964544 0)
(-0.0196051 1.4787 0)
(-0.00689957 1.39428 0)
(-0.0114041 1.43751 0)
(-0.00990663 1.31377 0)
(-0.0241654 1.30191 0)
(-0.0118714 1.28652 0)
(1.03511 -0.00599465 0)
(1.0198 0.0161819 -9.11903e-22)
(0.825735 1.27973 2.62596e-19)
(1.00224 0.000330986 -6.46702e-19)
(1.00406 0.00526729 7.57252e-19)
(1.00118 0.00208042 0)
(1.01269 0.0103975 6.43789e-19)
(1.00797 0.00832243 -7.80042e-19)
(1.00855 0.014686 0)
(-0.0237325 2.60028 0)
(-0.0261929 2.57938 -2.21934e-20)
(-0.023222 2.59372 1.5654e-20)
(1.24003 0.270499 5.80246e-19)
(1.16411 0.0880276 0)
(0.0391172 3.0785 -8.85206e-19)
(0.0646351 2.85722 -6.43738e-20)
(0.135804 3.19206 1.34697e-18)
(0.131406 3.21909 -1.87358e-19)
(0.131025 3.22877 0)
(0.0195027 3.13733 2.28179e-19)
(0.0731872 3.15981 8.72917e-19)
(0.0661389 3.18461 -4.30251e-19)
(0.0220636 3.12983 0)
(0.550334 0.27974 0)
(0.481958 0.298037 0)
(1.15215 0.705746 1.25723e-19)
(1.14484 0.82765 -1.07685e-19)
(1.20738 0.592027 0)
(1.23443 0.525256 0)
(1.016 0.0134134 -1.19992e-18)
(1.01491 0.0143038 1.50651e-18)
(1.02543 -0.00978073 0)
(1.02349 -0.0118297 0)
(1.00643 0.00267001 0)
(1.01043 0.0037788 0)
(1.00458 0.0018825 0)
(1.00978 0.00627903 0)
(1.0078 0.00597189 0)
(1.0045 0.00474215 0)
(0.101926 1.3732 0)
(0.099074 1.33461 0)
(0.132425 1.40983 0)
(0.150133 1.41363 0)
(0.14526 2.58681 0)
(0.184616 2.65753 -4.23787e-19)
(0.101688 2.64167 0)
(0.0854112 2.64482 1.99046e-19)
(0.0393862 2.66816 -1.48088e-19)
(0.0239102 1.33465 0)
(0.0336445 1.24887 0)
(0.025948 1.34525 0)
(0.0471332 1.26997 0)
(0.00524931 1.97991 5.27217e-21)
(-0.0192521 2.5992 -2.30916e-20)
(-0.00704466 2.65504 1.11212e-20)
(-0.0169454 2.67525 0)
(-0.0223609 2.60496 4.80724e-21)
(-0.0224102 2.60003 1.9226e-20)
(0.0139974 1.9778 -3.27796e-22)
(-0.00672811 2.38515 3.0977e-20)
(-0.0121248 2.40857 -1.26139e-20)
(1.01181 0.0400356 1.21442e-18)
(1.00552 0.0212224 -1.512e-18)
(1.004 0.0472844 -1.23739e-18)
(0.978738 0.0377982 1.55717e-18)
(1.06455 0.00873941 0)
(1.04964 -0.00810329 0)
(1.09514 0.0356577 0)
(1.07475 0.0133292 0)
(1.07257 0.00111248 0)
(1.14105 0.084817 0)
(1.11265 0.04551 0)
(1.11692 0.0331702 0)
(-0.0265787 2.42348 1.84566e-21)
(-0.0161127 2.01418 0)
(-0.0189287 2.21256 0)
(-0.0202759 2.59343 -1.35715e-20)
(-0.0173501 2.60358 2.90096e-22)
(0.00221656 1.5913 -4.44283e-20)
(-0.0102724 1.51898 4.53032e-20)
(-0.0181422 1.4079 0)
(-0.0226401 1.4155 0)
(-0.030492 1.40951 0)
(-0.00137324 1.32932 0)
(0.0164164 1.2426 0)
(0.388422 1.50504 2.69496e-19)
(0.431806 1.50566 1.44396e-19)
(0.596485 2.43743 -2.41164e-19)
(0.396762 2.53499 7.09346e-19)
(0.348158 2.04531 7.31264e-20)
(1.0211 -0.00808518 0)
(1.01552 -0.00972776 0)
(1.01493 -0.0154948 0)
(1.00741 -0.00104328 0)
(1.00493 -0.000896959 0)
(1.00779 -0.00466723 0)
(1.00928 -0.0035772 0)
(1.01424 -0.00433603 0)
(1.02051 0.0166758 1.17561e-18)
(1.01752 0.0158719 -1.5066e-18)
(1.02082 0.0189718 -1.18464e-18)
(1.01825 0.0175208 1.48514e-18)
(0.789038 1.3299 0)
(0.723828 1.3816 2.47112e-19)
(0.902203 1.22983 9.95118e-20)
(0.947942 1.17572 -1.32434e-19)
(1.15058 2.59208 2.87221e-19)
(0.76333 0.123687 6.0186e-19)
(1.16462 0.110954 0)
(1.2145 0.196997 -4.67144e-19)
(1.20209 0.157172 -1.99256e-20)
(1.00583 0.159342 0)
(0.125206 2.96055 5.12651e-19)
(0.101095 2.86607 -1.1179e-18)
(0.00805014 2.37772 7.44896e-19)
(0.109477 -0.181257 -2.99938e-19)
(0.332647 3.41011 -2.19806e-19)
(0.188315 3.30652 0)
(0.23254 3.34556 2.86268e-19)
(0.235734 3.03131 -1.72504e-18)
(0.328051 3.1879 0)
(0.00661036 3.121 4.472e-20)
(0.0158079 3.12984 -5.28303e-19)
(0.0146686 3.12591 7.7756e-19)
(0.0345699 3.13981 0)
(0.0329953 3.1501 0)
(1.20439 2.58887 0)
(0.550234 0.795921 -5.26337e-19)
(1.0715 1.00048 -1.13028e-20)
(1.00751 1.08439 0)
(0.860988 0.978995 -1.09287e-19)
(1.09879 0.900997 2.78783e-20)
(0.251614 0.306175 -8.0066e-19)
(0.63737 0.325325 -1.53355e-20)
(0.522458 0.219261 4.05964e-19)
(0.500271 0.336257 2.89638e-20)
(0.380904 0.258852 -1.15936e-18)
(0.588131 0.325555 0)
(0.704538 0.432471 6.62345e-19)
(0.701961 0.432767 0)
(0.543624 0.340456 0)
(0.456109 0.236574 0)
(0.83334 0.63373 4.06574e-19)
(1.24148 0.292994 -4.87922e-19)
(1.24233 0.433079 0)
(1.25033 0.373013 0)
(0.669813 0.19599 6.22197e-19)
(0.877288 0.564245 -3.71069e-19)
(0.77646 0.542797 6.62496e-19)
(0.963278 0.453514 -7.33572e-19)
(1.01924 0.0150735 8.08073e-19)
(1.01753 0.0144158 -8.11749e-19)
(1.01574 0.0155088 0)
(1.03659 -0.0055343 0)
(1.02998 -0.00832694 -7.60006e-19)
(1.02803 -0.0119249 7.52453e-19)
(1.02491 0.0107012 0)
(1.0234 0.0144379 0)
(1.01143 0.00420766 0)
(1.01417 0.00922938 0)
(1.01519 0.0042392 0)
(1.01429 0.00294791 0)
(0.0730262 1.35656 0)
(0.0803821 1.30063 0)
(0.149362 1.39195 4.45386e-21)
(0.282712 1.48598 8.80519e-20)
(0.177501 1.45663 1.8489e-19)
(0.209605 1.46189 -3.01562e-19)
(0.177967 1.41774 0)
(0.136481 1.59981 -7.49584e-20)
(0.119879 1.57992 0)
(0.343828 1.99367 -1.06344e-19)
(0.340346 2.33086 6.16963e-19)
(0.196108 1.46804 6.53393e-20)
(0.270011 1.40314 2.16895e-20)
(0.203174 1.39646 -1.75122e-20)
(0.279959 1.3458 -1.092e-19)
(0.243206 1.57814 0)
(0.269603 1.61454 1.16787e-19)
(0.0313629 2.25172 -2.98842e-20)
(0.0443437 2.65705 0)
(0.0669706 2.38759 1.38844e-19)
(0.0637907 2.40804 0)
(0.0700196 2.65834 -2.20579e-19)
(0.0497677 2.68737 0)
(0.031007 1.45358 3.56226e-20)
(0.0372896 1.49963 0)
(0.0354997 1.41806 0)
(0.0311252 1.42477 -4.02001e-20)
(0.00168366 2.64116 -1.64335e-20)
(0.0304784 2.68649 1.6627e-19)
(0.0113018 2.71197 1.16261e-21)
(0.00708661 1.84025 -8.9856e-21)
(-0.000100532 1.69491 -4.70172e-21)
(0.0204056 1.31051 0)
(0.0311402 1.22277 0)
(0.0463311 1.59773 -2.60518e-20)
(0.0364246 1.47931 -3.22743e-20)
(0.0400036 1.54164 4.02522e-20)
(0.0415197 1.62092 0)
(-0.0298593 2.26479 1.06909e-19)
(-0.0308341 2.54009 -4.44186e-20)
(-0.0167509 2.4385 5.27489e-21)
(-0.000490433 1.8555 1.08894e-20)
(-0.0253424 2.49075 4.72719e-21)
(-0.0195713 2.43533 -7.44595e-21)
(1.01894 0.0223689 -8.05749e-19)
(1.01555 0.0287363 8.08885e-19)
(1.01292 0.0183931 0)
(1.00904 0.0715933 1.13389e-18)
(0.991609 0.0621093 -1.26565e-18)
(0.950826 0.0560929 1.41516e-18)
(1.01241 0.112129 -1.50885e-19)
(1.04304 -0.00550065 0)
(1.05151 -0.00105569 7.24697e-19)
(1.03935 -0.00967055 -7.26195e-19)
(1.07229 0.0433656 -4.31049e-20)
(1.06523 0.0244744 3.717e-19)
(1.06321 0.0577409 0)
(1.05412 0.051104 -1.33744e-19)
(1.03215 0.0425105 0)
(1.02658 0.0385773 0)
(1.0279 0.0138502 0)
(1.0239 0.0166784 0)
(1.04026 0.0333531 2.75417e-19)
(1.0389 0.0272182 -6.08874e-19)
(1.05144 0.0349618 -2.91842e-19)
(1.0484 0.035049 -3.21479e-19)
(1.07178 0.0661414 6.27348e-19)
(1.09739 0.053912 0)
(1.10696 0.0983835 0)
(-0.0255533 2.2693 6.01016e-20)
(-0.0258834 2.01982 1.70858e-21)
(-0.021877 2.02706 0)
(-0.0268429 2.43767 -5.98123e-20)
(-0.0227864 2.39443 -3.47338e-21)
(-0.0333089 2.4641 6.49677e-21)
(-0.0200922 2.6126 -1.68685e-20)
(-0.023008 2.55421 4.83693e-22)
(-0.0216238 2.50625 -5.04827e-21)
(-0.0154426 2.60649 1.32273e-20)
(-0.0203444 2.60851 -1.45746e-20)
(-0.00614588 1.52097 -9.4677e-22)
(0.00261415 1.63752 -4.27495e-20)
(0.373553 1.45363 -1.13086e-19)
(0.373445 1.38591 4.43218e-20)
(0.664674 1.43133 -2.38975e-19)
(0.530782 1.49831 -1.41697e-19)
(0.58867 1.46446 0)
(0.592218 2.41459 2.07823e-19)
(0.660799 2.41063 3.38369e-19)
(0.410299 2.50385 8.8131e-20)
(0.401597 2.52795 -6.12358e-19)
(0.509142 2.46851 6.18018e-19)
(0.552264 2.45127 0)
(0.486661 2.50919 -5.60482e-19)
(0.247726 2.58125 1.1448e-18)
(0.353986 2.55321 -7.68075e-20)
(0.283127 2.6429 -1.58868e-18)
(0.947339 2.36742 7.31252e-19)
(0.837144 2.37302 0)
(1.01109 0.00056292 2.63414e-20)
(1.01538 -0.00533347 -2.13653e-20)
(1.0177 -0.00342963 -3.90218e-19)
(1.01507 -0.000792799 3.92356e-19)
(1.01249 0.00131161 0)
(0.652378 1.29445 0)
(0.676232 1.18861 0)
(0.790665 1.10817 0)
(0.669674 1.15145 0)
(1.1809 2.60558 6.03511e-20)
(1.06837 2.35228 0)
(0.831356 2.15505 3.92711e-21)
(0.820991 2.42233 0)
(0.920682 2.51635 -4.27063e-19)
(0.955502 2.47224 2.83997e-19)
(0.79571 0.183896 0)
(0.735946 0.157206 1.63173e-19)
(0.905147 0.153358 9.51251e-19)
(0.821183 0.155976 -3.55678e-19)
(0.77412 0.0902298 -1.10025e-18)
(1.08322 0.244301 -8.94298e-19)
(0.999697 0.308613 -1.8016e-20)
(0.926532 0.312765 8.61013e-19)
(1.00676 0.237884 7.23747e-19)
(0.947156 0.201917 -1.25815e-18)
(0.908009 0.206396 1.57389e-19)
(0.946596 0.273638 -3.33853e-19)
(0.924263 0.232563 0)
(0.995428 0.198537 6.20353e-19)
(1.04728 0.197008 0)
(1.04508 0.225696 0)
(1.10832 0.122948 2.90749e-19)
(1.07243 0.183254 -1.51987e-20)
(1.07666 0.244232 -1.58168e-19)
(1.10205 0.209904 0)
(1.02089 0.0469356 6.21428e-19)
(1.04038 0.0601383 7.75232e-19)
(1.03366 0.0453548 -6.17554e-19)
(1.04245 0.0680661 -5.20128e-19)
(1.01692 0.0764144 -7.98883e-19)
(0.983536 0.16168 0)
(0.988861 0.106718 0)
(0.96594 0.0771841 -5.03509e-19)
(0.903638 0.0980841 2.00416e-19)
(1.04043 0.10913 7.18429e-19)
(1.06967 0.126341 -8.38641e-19)
(1.07685 0.15909 7.48843e-19)
(1.03211 0.153778 0)
(1.07518 0.113668 0)
(1.05417 0.0942986 -3.43753e-19)
(1.04474 0.100067 -5.86205e-19)
(0.577953 1.04802 1.43527e-19)
(0.600368 1.36979 -4.56408e-20)
(1.15126 2.72249 -2.33552e-19)
(1.21627 3.06489 3.54608e-21)
(1.24229 2.70435 -1.3119e-19)
(1.26991 2.68708 -2.72108e-20)
(1.19623 2.32617 -1.13638e-20)
(1.2041 2.96842 -9.92788e-20)
(1.22473 2.93398 2.43316e-19)
(1.20587 3.21698 -1.39787e-19)
(1.36465 2.94665 1.93061e-19)
(1.35208 2.86425 0)
(0.5738 0.806561 -5.09022e-20)
(0.0939465 1.21308 5.60001e-19)
(0.565287 0.312401 5.29005e-19)
(0.398226 0.057185 5.64771e-19)
(0.435501 0.306707 6.58011e-19)
(0.537643 0.426649 -1.07007e-18)
(0.541369 0.420679 8.754e-19)
(0.435054 0.278665 -3.30184e-19)
(0.275255 0.204228 7.42011e-19)
(0.699336 0.271863 -3.59859e-19)
(0.653835 0.293736 0)
(0.584052 0.208991 6.21538e-21)
(0.740962 0.516864 3.58691e-19)
(0.72421 0.488013 -1.30367e-18)
(0.618462 0.450007 8.78395e-21)
(0.608032 0.439915 0)
(0.699622 0.721012 3.96198e-19)
(0.861791 0.785235 3.91953e-19)
(0.786879 0.868877 -4.58845e-19)
(0.907437 0.822318 -1.52931e-19)
(0.938959 0.867689 -3.67648e-20)
(0.945983 0.86745 3.76489e-20)
(0.872444 0.667746 -6.73754e-19)
(0.952252 0.7199 1.41984e-19)
(1.01291 0.734598 0)
(1.00343 0.710751 -1.91759e-19)
(1.02969 0.349633 2.11722e-19)
(1.15148 0.309832 2.8748e-19)
(1.07126 0.282038 3.65486e-19)
(1.02046 0.382669 -4.30764e-19)
(1.06987 0.445134 0)
(1.12621 0.424925 0)
(0.920875 0.385805 1.29101e-21)
(0.835061 0.319947 0)
(0.885924 0.319464 4.06464e-19)
(0.90987 0.320944 -8.37952e-21)
(0.958388 0.457343 2.04314e-18)
(0.920212 0.513578 5.24322e-19)
(0.923952 0.479975 -5.59888e-19)
(0.837439 0.468991 6.01739e-19)
(0.820456 0.463612 3.61009e-19)
(0.788414 0.445922 -3.54286e-19)
(1.02744 -0.000136167 6.50111e-19)
(1.02007 0.000159915 0)
(1.01858 0.00108316 4.23914e-19)
(1.02181 -0.0014382 -9.60301e-19)
(1.0224 0.0046307 4.66513e-19)
(1.02033 0.0116822 -9.7693e-19)
(1.02122 0.0110821 0)
(1.02044 0.0113196 -2.03617e-19)
(1.01595 0.00794058 5.10802e-19)
(1.01658 0.0107573 -2.54943e-19)
(1.01729 0.0101183 1.8769e-19)
(0.0368746 1.33275 0)
(0.0438771 1.38925 0)
(0.053359 1.33295 0)
(0.0608489 1.27746 0)
(0.0762643 1.40634 -4.16245e-20)
(0.0866416 1.37208 1.93952e-20)
(0.115096 1.55004 -1.67726e-20)
(0.10853 1.39539 -2.99153e-21)
(0.0417875 1.48436 1.71731e-20)
(0.0454158 1.47807 -1.32105e-20)
(0.0693165 1.39401 -1.12276e-20)
(0.0618455 1.3947 4.24576e-20)
(0.0564753 1.37188 6.36894e-21)
(0.0469398 1.39579 3.53607e-21)
(0.107592 2.35484 -1.53441e-19)
(0.0963168 2.40399 0)
(0.169299 2.02933 1.10345e-19)
(0.114711 1.70208 4.16394e-20)
(0.234615 2.02762 -9.13348e-20)
(0.198618 2.41697 0)
(0.261413 2.3669 -6.12079e-19)
(0.3015 2.36461 4.32276e-19)
(0.228281 1.98703 -2.54454e-19)
(0.154932 2.14518 1.72015e-19)
(0.141209 2.25083 0)
(0.019542 1.87566 4.71612e-21)
(0.00191685 2.37962 -3.22731e-20)
(0.00723599 2.13809 0)
(0.0123022 2.44399 -1.36688e-20)
(0.0300656 2.28656 9.38893e-21)
(0.0193389 1.43257 -7.95303e-21)
(0.0183243 1.41491 1.3578e-19)
(0.0164108 1.42391 -4.49358e-20)
(0.0241994 1.42985 -3.76583e-20)
(0.0291111 1.4575 0)
(0.0120084 1.40827 0)
(0.00568922 1.31042 -6.21096e-20)
(0.00892551 1.4021 1.80019e-20)
(0.0144719 1.39942 0)
(0.014171 1.30013 -4.5355e-20)
(0.0277357 1.21327 9.31502e-20)
(1.04086 0.0121627 0)
(1.04712 0.00844531 -6.80125e-20)
(1.03893 0.0227276 -4.90601e-19)
(1.04862 0.0214089 0)
(1.05247 0.021192 0)
(1.03656 0.0124374 -6.81972e-21)
(1.03124 0.0122811 7.88527e-19)
(1.03177 0.01733 9.56305e-19)
(1.02555 0.0212813 0)
(1.02251 0.0218753 0)
(1.03541 0.0263285 4.89423e-19)
(1.0259 0.0281045 0)
(1.02403 0.0277271 0)
(-0.0171577 2.02261 0)
(-0.000538439 1.66531 -3.8948e-21)
(-0.00468224 1.76787 -3.1993e-20)
(0.000268092 1.40975 0)
(-0.00436238 1.57272 -2.40194e-20)
(-0.0104181 1.48712 1.50048e-20)
(-0.00756727 1.42839 0)
(0.386539 1.6297 0)
(0.376581 1.31101 -8.60837e-20)
(0.299583 1.33873 0)
(0.428767 1.30948 2.14879e-20)
(0.479328 1.47603 0)
(0.459844 1.41994 1.97473e-20)
(1.03543 2.66795 -1.54595e-20)
(0.967468 2.3958 -9.18838e-19)
(0.920439 2.18466 1.02733e-18)
(0.851253 2.36481 2.43436e-19)
(0.846766 2.4769 0)
(0.91652 2.47314 0)
(0.930674 2.3608 0)
(0.909643 2.35048 -9.50251e-19)
(0.68458 2.4397 -4.02486e-19)
(0.798258 2.42937 -9.90634e-20)
(0.807621 2.40372 7.5236e-20)
(0.694398 2.3835 0)
(0.799674 2.37873 0)
(0.757718 2.39233 -3.70233e-19)
(0.765822 2.46637 0)
(0.638269 1.0957 0)
(0.479023 0.891788 -5.26437e-19)
(0.575823 0.942972 -3.32179e-20)
(0.517606 1.02626 0)
(0.518007 0.966085 7.86862e-19)
(0.807245 0.890921 -1.29681e-19)
(0.81511 1.02555 0)
(0.790694 0.992538 1.84942e-19)
(0.67584 1.03629 0)
(0.67645 0.939477 0)
(1.16089 2.74537 -2.33217e-19)
(1.13826 2.80906 -1.01091e-19)
(0.926073 2.32171 1.0751e-19)
(0.894106 2.30148 -8.49905e-20)
(1.12676 2.71813 0)
(1.08103 2.68745 1.02229e-19)
(1.08557 2.47038 -3.14801e-19)
(0.979949 2.2236 -2.98632e-20)
(0.489538 1.32181 0)
(0.506202 1.05539 -1.26462e-19)
(0.580703 1.16937 0)
(0.848504 0.25153 0)
(0.756095 0.200507 0)
(0.661909 0.154755 0)
(0.839372 0.252436 -6.32134e-19)
(0.726153 0.245568 3.74683e-19)
(0.922066 0.0913507 -4.12944e-19)
(0.924282 0.133351 0)
(0.912527 0.142252 1.78461e-19)
(0.848575 0.118063 7.13523e-19)
(0.812328 0.0790075 -4.47048e-19)
(1.15027 3.34138 -7.10467e-19)
(1.19991 3.26127 0)
(1.14784 3.3708 -1.48178e-18)
(0.637093 3.53308 1.25526e-18)
(0.856316 3.10362 6.73681e-20)
(0.525166 0.779762 6.09142e-19)
(0.419966 0.77729 0)
(0.291272 0.331939 -1.47282e-19)
(0.48486 0.65157 8.53927e-19)
(0.575603 0.323504 -1.88758e-19)
(0.514206 0.463484 2.26588e-19)
(0.672171 0.519634 4.82553e-19)
(0.72096 0.561264 0)
(0.67085 0.572127 0)
(0.637963 0.52944 0)
(1.01244 0.62106 8.72769e-20)
(0.925677 0.562861 -5.10676e-19)
(0.951667 0.59398 3.8425e-19)
(0.980338 0.533721 -3.96124e-19)
(1.08985 0.500102 0)
(1.09888 0.591966 -9.60569e-20)
(0.856089 0.419096 -8.31468e-19)
(0.85419 0.407508 -1.03016e-18)
(0.78302 0.400381 6.3052e-19)
(0.792227 0.388741 -6.41006e-19)
(0.841765 0.344807 -5.20755e-19)
(0.786947 0.340536 6.36477e-19)
(1.02679 0.00620216 -4.9696e-19)
(1.02648 0.006438 1.01182e-18)
(1.02957 0.000343505 6.30007e-19)
(1.03376 0.00123839 -7.58817e-19)
(1.03397 0.00939565 0)
(1.03024 0.0100812 -1.23456e-18)
(0.0644882 1.63836 1.94957e-20)
(0.0532058 1.59162 0)
(0.0915371 1.68732 1.32566e-19)
(0.0987312 1.66852 -1.17636e-19)
(0.0928198 1.55134 3.00097e-20)
(0.0921136 1.55326 0)
(0.0141305 1.69741 0)
(-0.0011453 1.51625 1.07102e-20)
(-3.91466e-05 1.4631 -9.62565e-21)
(-0.0065336 1.56905 5.5321e-21)
(0.00325967 1.88719 1.57401e-20)
(-0.00867265 1.94071 -3.82374e-21)
(0.495921 1.35298 -2.81202e-19)
(0.493971 1.35279 3.09065e-19)
(0.45613 1.306 -3.72155e-20)
(0.438372 1.28056 8.08703e-21)
(0.644104 1.31361 0)
(0.558501 1.40501 1.02065e-19)
(0.574926 1.41125 -9.93741e-20)
(0.470021 1.30017 3.63997e-20)
(0.525439 1.24515 0)
(0.576263 1.20626 0)
(0.652115 2.39967 5.91099e-19)
(0.668139 2.44137 1.26758e-18)
(0.712267 2.45198 -8.73586e-19)
(0.608394 2.42588 -2.02627e-19)
(0.55898 2.51593 2.8605e-19)
(0.508379 2.49107 -7.62545e-19)
(0.976563 2.36746 -5.75164e-19)
(1.00968 2.3793 0)
(0.923483 2.16258 -6.5855e-19)
(1.05238 2.66635 0)
(1.0548 2.65291 0)
(0.589963 2.24888 -1.40232e-19)
(1.03179 3.14839 1.17362e-19)
(0.903318 3.01944 -1.92099e-20)
(0.253547 0.816617 0)
(0.275 0.653847 -3.18288e-19)
(0.45029 0.615905 -3.22156e-19)
(0.370773 1.99223 0)
(0.457424 2.77563 -4.69015e-20)
(0.409248 2.53806 0)
(0.726157 0.671321 -8.35937e-19)
(0.809398 0.694566 1.11296e-18)
(0.828832 0.63468 -1.09923e-18)
(0.701827 0.637215 -1.066e-19)
(0.755057 0.59722 -4.35794e-19)
(0.996728 2.74572 -8.92684e-20)
(1.03976 2.81023 -1.73608e-19)
(0.62542 2.10696 7.27217e-19)
(0.576726 1.6764 -5.17238e-19)
(0.68989 1.8806 -4.17475e-19)
(0.98374 2.43051 -1.13441e-19)
(0.991645 2.42406 3.04264e-19)
(0.641728 1.8114 2.89847e-20)
(0.435296 1.29957 1.4758e-19)
)
;

boundaryField
{
    wall-4
    {
        type            noSlip;
    }
    velocity-inlet-5
    {
        type            fixedValue;
        value           uniform (1 0 0);
    }
    velocity-inlet-6
    {
        type            fixedValue;
        value           uniform (0 3 0);
    }
    pressure-outlet-7
    {
        type            zeroGradient;
    }
    wall-8
    {
        type            noSlip;
    }
    frontAndBackPlanes
    {
        type            empty;
    }
}


// ************************************************************************* //
