/*--------------------------------*- C++ -*----------------------------------*\
| =========                 |                                                 |
| \\      /  F ield         | OpenFOAM: The Open Source CFD Toolbox           |
|  \\    /   O peration     | Version:  2206                                  |
|   \\  /    A nd           | Website:  www.openfoam.com                      |
|    \\/     M anipulation  |                                                 |
\*---------------------------------------------------------------------------*/
FoamFile
{
    version     2.0;
    format      ascii;
    arch        "LSB;label=32;scalar=64";
    class       volScalarField;
    location    "97";
    object      p;
}
// * * * * * * * * * * * * * * * * * * * * * * * * * * * * * * * * * * * * * //

dimensions      [0 2 -2 0 0 0 0];

internalField   nonuniform List<scalar> 
918
(
0.560193
1.16569
3.99812e-05
0.559664
-0.012617
1.13269
-0.512771
0.653219
0.540403
-0.103108
-0.0544781
0.542314
0.993257
0.758817
-1.12436
-0.0136719
0.653362
-0.381
0.53954
-0.07711
0.673657
0.546934
0.549957
0.540533
0.599447
0.731718
0.874247
0.0328378
0.0141884
0.00842284
-0.012129
-0.0388008
-0.0334931
1.01635
1.06743
1.09012
0.508109
0.336034
-0.378116
-0.452752
-0.43809
-0.536001
0.654799
0.656125
-0.215953
0.654608
0.652036
0.527402
0.539774
0.54069
0.541695
0.540687
0.542064
0.405021
-0.104366
-0.135873
-0.0839724
-0.0769594
0.0505803
-0.0531546
-0.0539462
-0.0539901
-0.0557329
0.457153
0.536826
0.533456
0.546551
0.55583
1.10524
1.07718
1.10332
1.0169
1.03344
0.971259
0.943974
0.779758
0.801673
0.744082
0.732173
-1.55116
-2.49374
-0.539397
-0.291246
-0.0109176
-0.0119332
-0.00651802
0.650808
0.652063
0.653812
0.655137
1.08023
-0.377763
-0.481489
0.539686
0.538499
0.546798
0.547501
0.543523
0.542612
-0.0658295
-0.0623878
-0.0659278
-0.0716586
-0.0698325
0.645915
0.652892
0.54106
0.53806
0.563526
0.584238
0.573892
0.279671
0.610162
0.626235
0.56732
0.727838
0.719551
0.729236
0.847699
0.811595
0.911484
0.934567
0.0203113
-0.000380146
-0.0179551
-0.0210518
-0.0202161
0.503936
0.496466
0.524375
0.51155
0.514061
0.253789
0.121771
0.420248
0.44452
-0.297827
-0.366591
-0.430425
-0.460088
-0.567874
0.615828
0.656953
0.654007
-0.225158
-0.153062
-0.288334
-0.0796305
-0.143166
0.517646
0.524675
0.519664
0.535243
0.529704
0.53167
0.544054
0.541122
0.542683
0.466956
0.590119
0.331405
0.29567
-0.242263
-0.150993
-0.240316
-0.0668366
-0.0641529
0.0651939
0.091203
0.0369139
0.0248159
-0.0601036
-0.0558285
-0.0578367
-0.0555447
-0.0573729
0.449858
0.438571
0.469875
0.477454
0.523591
0.525009
0.529382
0.527463
0.894774
0.917009
0.924697
0.898552
-3.47377
-6.23789
0.0297769
0.164767
-0.0069642
-0.0102332
0.00182457
-0.00641673
-0.000694909
-0.00235082
-0.0114597
-0.012948
-0.00791539
-0.00669684
0.646058
0.646553
1.00357
1.01186
0.978051
0.931326
0.527975
0.530008
0.535479
0.53138
-0.0583078
-0.0605966
-0.0590029
0.652063
0.649981
0.651375
0.240912
0.150519
0.331008
0.360361
0.639885
0.629369
0.63837
0.626298
0.662774
0.941933
0.960156
0.958403
0.96683
1.01093
1.02738
0.992661
0.483312
0.493331
0.488258
0.527194
0.525111
0.52595
0.522403
0.523381
0.521533
-0.0276721
-0.404646
0.49103
0.506976
0.493725
0.495079
0.69634
0.775436
0.65487
0.65565
0.655091
-0.0095548
-0.0682129
0.250615
0.216079
0.389035
0.425664
0.404475
0.865926
0.826438
0.876555
0.849731
0.811295
0.836617
-0.356333
-1.84587
-0.970359
0.510858
0.326856
0.413086
0.00627922
-0.0108133
-0.00596726
1.00438
1.07526
0.645811
0.821239
0.823114
0.700132
0.7294
0.784991
0.711983
0.745631
0.779446
0.759843
0.571122
0.504128
0.52119
0.844439
0.900032
0.119776
0.0570554
0.0133138
0.110594
0.168561
0.142262
1.03495
0.953257
1.02293
0.537823
0.538549
-0.00946784
-0.0275278
0.542817
0.542874
-0.0143346
-0.00388371
0.396607
-0.831357
0.0972506
0.531433
0.521253
0.538421
-0.0889341
0.3565
-0.0538694
0.046971
-0.0120955
0.532755
0.468326
0.427307
-0.00414188
-0.0233322
-0.0656445
-0.210254
0.535492
0.533797
0.537888
0.538823
0.539508
-0.0233146
-0.0197715
-0.0127002
-0.059757
-0.052297
-0.0676242
0.502278
0.521353
-0.169804
0.53804
0.54018
0.539997
0.533285
0.538902
0.537164
-0.0141798
-0.0182896
-0.0207603
0.220456
0.353802
0.631798
0.716395
0.604079
0.383479
0.15116
0.537836
0.599752
0.507233
0.658769
0.652216
0.650887
0.162709
0.0117055
0.172197
0.113997
0.529287
0.528026
0.519502
0.516455
0.533288
0.531397
0.535966
0.532997
0.535951
0.537327
-0.0454078
-0.0714882
-0.0813807
-0.147482
0.311436
0.571587
0.256615
0.28566
0.141931
-0.0491797
-0.0507443
-0.0512584
-0.0577676
0.000581299
-0.0278912
0.0412175
0.040517
0.0106496
-0.0148698
-0.0105492
-0.0225962
-0.0149669
0.526038
0.525928
0.530817
0.539366
0.478015
0.481794
0.446484
0.467374
0.452508
0.390883
0.42658
0.401657
-0.00910894
-0.00222943
-0.0057062
-0.0217736
-0.0180669
-0.0398716
-0.0375428
-0.0316848
-0.0286149
-0.0362472
-0.05873
-0.0624299
-0.167888
-0.284507
0.990182
0.909286
0.144002
0.52463
0.531096
0.527852
0.532796
0.535927
0.536719
0.534419
0.530962
0.52169
0.52339
0.519923
0.520862
-0.100146
-0.242846
-0.0709366
-0.147145
0.149293
0.631056
0.365703
0.300531
0.29607
0.525759
0.897019
0.6781
0.647581
0.636903
-0.346983
0.0355552
-0.285952
0.323601
0.158471
0.632752
0.681754
0.703383
0.651532
0.605066
-0.0937354
0.559039
-0.0755069
-0.0223553
0.180404
0.0542438
0.63824
0.641062
0.646921
0.64249
0.651614
0.643236
0.624182
0.626124
0.642448
0.648378
0.481626
0.251127
0.201297
0.16279
0.64554
0.515691
0.564493
0.490767
0.524513
0.527116
0.525794
0.507114
0.51471
0.510224
0.516808
0.520345
0.528991
0.529474
0.524719
0.526851
-0.0521433
-0.0579325
-0.0224551
-0.132405
-0.124793
-0.187813
-0.0565791
0.0794326
0.040884
0.240515
0.344028
0.0558817
-0.0536808
-0.0265567
0.0174693
0.183856
0.212392
0.0764292
0.1625
0.155795
0.135956
0.238868
0.241424
-0.0304082
-0.030932
-0.0350537
-0.0388415
0.0183449
0.0902483
0.0992826
-0.0114172
-0.0149957
-0.0491302
-0.0521643
-0.0206098
-0.0256532
-0.021368
0.00654352
-0.0558487
-0.023822
-0.0100879
-0.0118967
-0.010783
-0.0156349
0.520721
0.522481
0.5227
0.531686
0.543855
0.558542
0.52407
0.500284
0.491041
0.494047
0.466948
0.477293
0.473096
0.48678
0.50805
0.516569
0.514904
0.517729
0.500052
0.501756
0.488259
0.491948
0.466952
0.447523
0.435451
-0.046496
-0.00908495
-0.0170774
-0.0417069
-0.01278
-0.0241814
-0.0152007
0.00391556
-0.013104
-0.0137382
-0.0235569
-0.0324387
-0.0324273
-0.0694731
0.0184046
-0.18288
-0.217278
-0.291186
0.89288
1.01685
0.811319
0.584712
0.60595
0.84885
0.932587
0.544231
0.7369
0.759636
0.590026
0.858465
0.529484
0.529077
0.526676
0.526151
0.527372
-0.0034952
0.104176
0.0995904
0.165285
0.281089
0.391426
0.326543
0.200571
0.329905
0.332286
0.623143
0.634894
0.591655
0.615968
0.616957
0.427524
0.503177
0.554832
0.515859
0.568354
0.59016
0.543929
0.577389
0.526132
0.481319
0.477409
0.427228
0.44669
0.422184
0.405407
0.520105
0.496725
0.507646
0.497769
0.51988
0.545948
0.543077
0.565865
0.580886
0.500507
0.455639
0.464873
0.495073
0.456742
0.472215
0.488038
0.239198
0.142228
0.224898
-0.0591372
0.00803014
-0.00282127
-0.0524696
0.000867754
0.284498
-0.404134
-0.380995
-1.00449
0.509577
0.93906
0.555548
0.534377
0.651393
0.639781
0.64402
0.660621
0.654294
0.633895
0.641766
0.64652
0.591739
0.613066
0.627221
0.62462
0.526926
0.381417
0.381419
0.328696
0.198723
0.239204
0.434592
0.35915
0.284281
0.284329
0.45868
0.344736
0.415548
0.447906
0.378901
0.333508
0.537247
0.602976
0.596032
0.57019
0.479383
0.49083
0.515973
0.549519
0.57288
0.607657
0.516217
0.522175
0.523402
0.520874
0.51814
0.521238
0.521491
0.524067
0.524689
0.527704
0.52677
-0.049596
-0.0362107
-0.0465774
-0.057965
-0.0141667
-0.0167015
0.02667
0.0140353
-0.0133859
-0.00887542
-0.0295739
-0.0337246
-0.0309846
-0.0237677
0.106226
0.118613
0.102911
0.0636069
0.255194
0.383966
0.458426
0.333675
0.228598
0.25233
0.27047
-0.0106761
0.0135125
0.00114671
0.0408707
0.033671
-0.0411441
-0.0460958
-0.0438138
-0.0327588
-0.0245947
-0.0472042
-0.0559676
-0.0443571
-0.0484251
-0.0510885
-0.0577174
0.502565
0.496054
0.497649
0.491604
0.490315
0.50452
0.508823
0.510827
0.516367
0.518602
0.508655
0.514082
0.518029
-0.0172846
-0.0409472
-0.043417
-0.0383044
-0.0385595
-0.0368719
-0.0396206
0.129317
0.0615192
0.0649062
0.0165877
-0.117848
-0.0592789
0.496136
0.493386
0.481342
0.72501
0.574633
0.495364
0.591643
0.697644
0.282766
0.477284
0.313663
0.891492
0.788727
0.934718
0.546135
0.252323
0.419327
0.457446
0.274556
0.352996
0.325492
0.215705
0.245932
0.286722
0.38355
0.270982
0.249345
0.00592552
0.196461
0.30608
0.288278
0.410775
0.470083
0.27388
0.192775
0.14782
0.60739
0.626648
0.639887
0.612292
0.634915
0.58445
0.576279
0.591758
0.600065
0.593511
-0.734196
-0.440469
-1.38879
-0.717876
-0.259505
0.539518
0.516581
0.773193
0.642988
0.668262
0.653334
0.617724
0.589493
0.614647
0.634578
0.340113
0.451077
0.425876
0.432537
0.335292
0.264839
0.564376
0.562052
0.595763
0.619703
0.590563
0.621344
0.514021
0.51374
0.513206
0.509444
0.507706
0.510049
0.0614987
0.0288276
0.0704354
0.0529689
0.0307563
0.0187884
-0.0190146
-0.0294555
-0.0351195
-0.0338728
-0.0193053
-0.0156251
0.178532
0.114376
0.0350848
0.063295
0.00211807
-0.066537
-0.0864324
0.02092
0.117629
0.107696
0.410496
0.65847
0.478893
0.645957
0.489434
0.544796
0.469744
0.460742
0.484717
0.383467
0.464117
0.263312
-0.246009
-0.156287
0.797994
0.808178
0.582237
0.412139
0.177917
0.3504
0.541252
0.469903
0.504626
0.5729
0.559335
0.0403877
0.0941983
0.39252
0.61937
0.247815
0.238199
0.231858
0.419777
0.336222
)
;

boundaryField
{
    wall-4
    {
        type            zeroGradient;
    }
    velocity-inlet-5
    {
        type            zeroGradient;
    }
    velocity-inlet-6
    {
        type            zeroGradient;
    }
    pressure-outlet-7
    {
        type            fixedValue;
        value           uniform 0;
    }
    wall-8
    {
        type            zeroGradient;
    }
    frontAndBackPlanes
    {
        type            empty;
    }
}


// ************************************************************************* //
