/*--------------------------------*- C++ -*----------------------------------*\
| =========                 |                                                 |
| \\      /  F ield         | OpenFOAM: The Open Source CFD Toolbox           |
|  \\    /   O peration     | Version:  2206                                  |
|   \\  /    A nd           | Website:  www.openfoam.com                      |
|    \\/     M anipulation  |                                                 |
\*---------------------------------------------------------------------------*/
FoamFile
{
    version     2.0;
    format      ascii;
    arch        "LSB;label=32;scalar=64";
    class       surfaceScalarField;
    location    "97";
    object      phi;
}
// * * * * * * * * * * * * * * * * * * * * * * * * * * * * * * * * * * * * * //

dimensions      [0 3 -1 0 0 0 0];

oriented        oriented;

internalField   nonuniform List<scalar> 
1300
(
3.75095
5.62643
-3.25694
3.75095
-7.7557
5.62643
-4.41678
4.41678
-0.352927
0.352927
1.87638
1.87457
-2.69955
2.69955
-2.02492
2.02492
-2.52133
2.52133
-5.24649
5.24649
-5.0694
5.0694
4.648
-4.648
-6.31868
6.31868
-0.935731
0.935731
-3.70022
3.70022
3.16957
-3.16957
-1.90344
1.90344
0.0897773
-0.0897773
-0.553467
4.30442
3.19749
3.19749
-2.00595
2.00595
-4.87041
4.87041
6.2181
-6.2181
5.2354
-5.2354
-1.97847
-2.495
1.80116
-11.4594
-5.95454
-5.95454
-8.44037
8.44037
-2.81394
2.81249
2.94647
-2.94647
-1.76066
1.76066
-4.38036
-0.0364217
-4.38036
4.38545
0.0313348
4.38545
-0.455928
0.103002
-0.455928
4.01951
-4.01951
0.247156
0.105771
0.247156
3.06541
-3.06541
-1.87712
3.75351
1.87383
-1.8719
6.17633
-1.87905
3.75362
-6.00932
6.00932
-2.94622
0.246669
-2.94622
2.48632
0.21323
2.48632
-6.84965
6.84965
-2.08412
0.0592083
-2.08412
1.97096
0.0539526
1.97096
2.88226
-2.88226
-2.62756
0.106223
-2.62756
2.39244
0.128894
2.39244
0.3535
5.27293
-5.97993
8.79242
-5.27293
0.0264397
5.20834
0.0381505
5.20834
-5.10606
0.0366564
-5.10606
5.0125
0.0568954
5.0125
4.72961
-0.0816109
4.72961
-4.76903
0.121025
-4.76903
-3.36858
-4.05587
-6.4689
0.150218
-6.4689
-1.02513
0.0894003
-1.02513
0.823106
0.112624
0.823106
-3.68618
3.68618
-4.12315
0.422935
-4.12315
3.12394
0.0456316
3.12394
1.86849
1.88247
5.61944
-5.61944
2.44987
-1.87528
-0.0281631
-1.87528
-1.98068
-3.25473
1.98068
-0.0772318
-0.159318
0.249096
-0.159318
3.15945
0.0380319
3.15945
2.23515
0.157287
-2.23515
0.229205
3.28145
-3.28145
1.33429
0.671654
1.33429
-5.56273
5.56273
4.95711
0.0553985
-4.95711
0.0866944
6.15668
0.061421
6.15668
-6.19953
-0.0185683
-6.19953
2.52957
-5.02457
-2.66355
6.13676
0.181917
-6.13676
0.182224
2.91847
0.0279974
2.91847
-2.91773
2.91773
-2.98488
0.0384062
-2.98488
-2.1597
0.399036
-2.1597
1.46246
0.298202
1.46246
-4.28262
-0.0977422
-4.28262
-4.27421
0.151062
4.27421
0.111234
1.12662
-1.12662
-0.587982
0.132054
-0.587982
-4.14627
-0.136343
4.14627
-0.126769
-3.90577
-0.113737
-3.90577
-3.02464
0.0397654
3.02464
0.040765
3.11291
0.0465411
-3.11291
0.0475075
-1.87081
3.75328
-1.88014
3.75397
-5.63027
-0.37905
-5.63027
6.32019
-0.310869
6.32019
3.34128
0.358938
-3.34128
0.395056
2.31423
0.172098
2.31423
-6.8099
-0.0397505
-6.8099
6.83671
0.0129341
6.83671
2.18105
0.133172
-2.18105
0.0969291
1.92425
0.0467158
1.92425
2.90304
-0.0207747
2.90304
-2.87609
-0.00617464
-2.87609
2.79008
-2.79008
2.71502
0.07506
-2.71502
0.0874689
-11.1332
11.1146
-0.0353146
-11.0978
5.17303
5.17303
4.15369
0.575922
4.15369
-4.98871
0.219685
-4.98871
2.70171
-5.36527
3.10893
-6.47751
4.65766
-16.1171
4.28312
-8.33899
6.70686
-6.70686
6.5969
0.109961
-6.5969
0.128002
-1.1437
0.118573
-1.1437
-3.08594
-0.600244
-3.08594
4.32625
-0.640072
4.32625
-3.02783
3.02783
-3.07734
0.049502
3.07734
0.0466065
1.88537
0.0388785
-1.88537
0.0100884
0.183139
0.0640169
-0.183139
0.0238205
3.49723
-0.215784
3.49723
-3.08171
-0.199733
-3.08171
-1.24399
0.100284
1.24399
0.0903048
-5.81385
0.251114
-5.81385
-11.1908
0.0929021
-11.1526
-6.10663
-6.10663
2.33374
11.1262
-2.89389
0.0178007
2.89389
0.024581
2.97427
0.0535676
-2.97427
0.0565331
-2.85692
0.0668373
2.85692
0.0608119
-2.53485
0.375149
-2.53485
-1.06368
1.06368
-1.22697
0.163285
1.22697
0.23549
1.40157
-0.274953
1.40157
0.707725
0.115381
-0.707725
0.119743
-3.80218
-0.103589
-3.80218
6.5561
-0.235908
6.5561
-2.96568
-0.116038
2.96568
-0.0626374
-0.0332854
11.1479
-5.13974
0.0336845
5.13974
-11.2093
11.243
-3.20497
0.670121
3.20497
0.948723
5.28264
0.280089
-5.28264
0.293929
6.78902
0.0476915
-6.78902
0.0821577
-2.59356
-0.492376
-2.59356
-5.04978
-0.580495
5.04978
-0.723527
-11.4748
-0.204581
11.6794
-11.4179
6.01843
0.138252
-6.01843
11.3812
-1.02409
-0.102531
1.02409
0.0395966
1.73071
-0.329137
1.73071
3.69674
-0.199507
-3.69674
-0.105442
-6.71134
-0.0985546
6.71134
-0.155241
-2.14836
-0.445196
2.14836
-0.417654
-4.26714
4.30517
1.90919
-2.37748
-2.64709
-5.63221
1.85184
1.90144
4.30171
-10.118
-5.99907
-9.93577
7.26032
-6.96639
-9.22968
9.14807
7.91589
-8.02962
-5.78465
5.83125
6.483
-6.44224
1.87885
1.87466
8.04762
-7.80095
-15.5547
15.1757
7.58798
-7.52877
15.7087
-15.7484
-17.7909
17.8386
-5.7073
5.81352
-6.74101
6.73484
-6.97736
6.91472
-2.83775
-3.63976
13.0744
-12.9242
8.66297
-8.69114
-8.64795
9.07088
3.38261
0.922561
3.42915
-1.88213
3.76098
-1.87149
3.78068
2.75965
-5.5974
2.60562
-5.25271
4.4052
4.25778
-4.32796
-1.30425
-5.92503
5.95303
-5.81431
5.87512
9.17224
-9.20866
-1.88518
3.75984
-1.86879
3.77023
-3.42499
-2.35965
3.37936
0.922346
8.04586
5.02858
-8.22778
-1.70799
-8.05125
7.85174
-8.23599
8.03626
-0.433603
5.81988
-5.38627
4.43681
-1.56558
7.38546
5.69474
5.91443
5.8655
-5.58541
1.1009
-6.48717
-6.40048
-2.20164
2.3337
2.08473
-1.97895
6.16732
1.74856
6.04056
-5.77297
-2.25665
-5.87656
3.82034
2.01091
3.86985
4.07857
2.40443
4.11834
3.03039
-3.03602
0.00563762
-3.05674
6.08712
0.723812
-5.41639
-4.49404
4.98949
3.05813
5.20272
-5.57252
-2.22843
-5.17746
-9.50994
-6.04479
-10.0904
10.0516
5.1241
9.74071
-11.9182
11.7629
4.81555
2.77244
4.8695
-4.96516
-2.56361
-4.86824
11.6228
-2.64796
-8.97488
-10.2853
-7.50555
10.2724
5.4363
10.9286
6.91
11.0107
4.41362
7.20922
-9.84992
2.34437
-3.86836
-1.83894
-3.78089
3.67593
2.13759
3.80482
-4.21771
-2.5233
-4.19991
-4.29603
-2.68133
4.3168
2.41803
-4.41859
-3.8174
4.53463
2.38009
4.03554
-10.0346
4.30346
-7.94322
-9.16793
-3.75629
-9.03993
3.56162
2.61515
-6.17677
-2.03578
8.59273
-4.33495
7.28849
-5.22131
-3.46983
-5.21122
-6.90824
-1.73971
-6.75718
-8.85162
8.35924
-9.14721
8.50714
12.4693
-5.62557
-6.84375
-3.96848
-2.47375
3.92097
-0.491826
-3.71045
3.71609
0.0505236
3.8312
4.75376
4.26194
-3.88508
-1.92923
-3.82855
3.82507
2.05005
3.89191
6.86247
2.30976
6.89381
-6.63709
-2.57157
-6.73483
9.01256
-8.61352
2.83051
-2.73023
5.4037
2.63256
-5.18792
-2.86333
6.20784
-3.22021
-2.98763
-12.2068
10.5207
1.6861
-4.82138
-0.384573
-0.47435
-5.48397
-3.74572
5.36294
0.551484
11.0722
7.3265
-5.51107
5.76218
6.1683
6.2237
-0.176773
5.78897
-5.11885
5.25946
-2.61782
-2.64164
5.49383
-5.63017
-1.241
-5.54833
4.30733
0.410384
1.38561
-1.13651
-1.74631
-0.455336
-1.62656
1.17555
0.90917
1.23957
0.959415
1.37428
-2.93384
0.501672
2.43217
-1.97442
-1.47728
-3.86378
-1.13421
4.99799
5.74881
2.10293
-5.64337
-0.233193
2.50768
-2.39505
-0.818282
-3.0455
2.22846
-3.04674
-3.66344
-2.09933
5.76277
-3.36984
-0.45871
3.31627
0.553572
-3.82731
-2.09772
3.7889
0.329433
-3.12835
6.19088
-3.06253
-5.05758
2.52742
3.5597
4.53833
-4.78958
2.44785
2.34173
-1.22988
4.25425
0.948465
4.42635
-6.96931
4.74088
5.82372
3.24716
-6.18266
1.0052
-5.96412
8.55253
-7.38085
-1.17168
4.17036
4.38217
7.03645
5.43287
-5.6549
12.6913
-1.20803
-6.17282
7.17214
-3.92499
4.85965
-8.78464
-10.2925
4.1197
-9.09949
10.873
-1.77351
-3.61276
-8.30539
12.7123
-1.19941
-11.5128
8.5413
-4.29767
-4.4216
8.71927
-6.94563
6.98521
-1.99304
-4.99217
-10.0698
-5.67861
10.1684
1.59453
-9.94524
12.2896
-2.73603
4.12221
0.747289
4.16893
3.30807
-5.49403
2.18596
3.63756
-5.6306
2.07893
-7.57296
-6.71079
12.0421
-5.33129
-10.4671
-9.48695
-0.980134
2.53574
9.75388
-9.44574
7.40619
2.03955
3.30083
0.591077
-3.37589
-0.404996
0.233353
4.51287
-4.74623
4.03817
4.19546
3.26233
1.25054
3.84574
2.10729
-3.87032
-0.329592
-4.1643
1.48297
-1.74626
-3.69541
5.17838
-4.06758
0.372165
-2.74421
-3.49762
6.24183
-4.58315
3.03465
3.15623
5.0847
-4.91374
1.41612
-2.3927
-2.52103
2.65146
-4.39773
1.99519
3.18319
4.37528
0.55788
5.86936
6.17273
-8.48451
0.541285
11.2013
-9.49332
2.45704
8.55369
-9.86323
0.376281
-8.66365
1.00709
-5.34204
-5.16968
5.21207
-6.95177
-3.57257
6.23405
0.659753
-6.34529
-0.411888
-6.01568
-2.83593
-6.46088
-3.0344
-6.11282
-8.6893
-1.64618
-7.04312
6.71306
-6.66155
-3.42888
7.38508
1.12206
-7.38919
7.28666
-7.46674
7.1376
0.0954874
3.6206
4.35742
1.88367
-2.39072
4.27439
-5.13403
7.44379
-8.74681
3.61278
4.22025
-6.79182
-4.52656
5.0047
4.00786
5.3029
8.85737
-10.3181
1.4607
-10.6168
11.9488
-1.33198
-16.3629
5.74602
-7.50549
2.43254
0.397976
2.55111
0.540767
2.49851
-3.03928
-2.18946
-2.09916
-2.44355
-3.46498
5.90853
1.08252
-3.53263
2.45011
-3.5673
4.64982
-0.221384
-3.31124
5.26516
-2.76665
5.66313
-3.78868
1.87445
3.4412
5.75479
-2.31359
4.39612
-1.76356
1.93219
-4.24578
-1.53279
-2.9542
5.09179
-3.28763
3.6598
-0.345566
4.00536
-4.04583
0.82562
-0.7835
3.41196
3.64117
4.31734
-3.0668
2.91607
-4.67964
-1.32971
-4.12176
-0.938564
-0.253893
-3.68679
3.94068
5.95786
-6.21176
-5.22463
9.50576
-4.28112
7.67404
-5.37101
-2.30303
-4.23791
-4.37561
3.86276
1.92621
9.60024
0.206092
-5.5771
-4.91276
-3.96403
3.09858
2.16088
-1.68882
3.37492
2.16317
-0.777562
0.435873
0.803699
1.76051
-1.32464
0.308993
1.45152
-0.82752
1.69205
0.815632
-1.80743
0.180864
-1.35417
3.58263
1.078
-1.98717
0.662525
0.983137
-3.60096
5.08462
-2.69235
-2.39227
6.06776
1.14626
-3.83861
4.40207
-3.99169
2.40768
-3.54189
-1.43093
-5.42262
-3.67406
-2.51428
4.96439
-3.39425
5.49718
1.30095
-5.26399
6.56493
-3.73073
1.6314
-3.03899
3.85462
-0.919082
-2.11991
2.90054
2.86223
-3.09093
0.0454337
-0.190389
2.40137
-2.59176
-0.645369
-2.61979
-4.57375
4.90318
-2.10507
4.55292
2.16932
-1.91735
6.47027
1.80863
-3.72598
-3.24895
-3.70766
-1.38424
3.15409
-0.568066
-4.30017
-5.56023
4.167
0.259352
-7.08593
7.90409
-0.818159
-4.02779
-0.713088
4.88345
-6.09909
0.468487
-4.02016
3.88393
4.8324
5.09175
-11.2926
-0.220284
-6.16846
1.11929
-7.28775
5.50146
-3.52385
7.64354
-10.2896
6.86069
-9.1675
6.47186
-0.815891
6.23255
-4.04658
2.74233
-8.42094
-6.82642
5.57309
-2.80065
6.32038
-3.18259
9.50296
-5.91862
5.35246
4.15051
-1.01862
-4.1926
-5.36766
4.34905
-0.0152019
4.15372
4.98049
-2.8732
4.6509
2.27013
-4.66283
-2.1276
-6.49623
1.8334
-3.34
-1.92141
3.75482
3.16329
3.75436
1.23378
-3.34937
7.19958
-8.17972
-1.86829
-3.30139
5.3611
-1.01206
3.45077
-6.75216
-1.89127
4.77331
-0.776084
-3.99723
0.852253
-4.42483
1.67847
-6.1033
5.2733
-5.68519
2.21996
-9.72545
-5.16923
-5.12964
-2.25547
-5.21127
-7.54646
5.29099
-1.80044
5.48622
-8.47487
7.69878
-3.47396
8.76495
-5.41163
-1.04925
5.82928
1.30832
10.0733
0.2278
-4.75436
-1.92749
3.82411
-1.89661
1.17109
-3.45899
0.365124
2.50475
3.56301
-6.81208
0.0202565
-4.7341
-3.90762
7.91548
5.59814
11.556
1.23793
9.09325
-1.17777
10.3312
4.12513
4.36062
-2.97509
4.43579
0.965586
4.57836
-0.927133
2.80158
1.62398
1.71338
0.681674
2.30373
1.33744
3.12935
0.0900674
-2.00909
4.61423
-8.57826
-0.962871
-8.00234
1.14573
5.70165
-4.55591
2.90091
-0.740032
1.0043
-0.141475
-1.14076
1.28223
-2.78312
-1.91832
-0.466798
-1.68743
2.34995
1.8952
-1.88315
-0.899964
0.348294
-4.02235
3.1936
-3.14816
-0.285937
6.279
-2.81358
0.221819
-1.18218
-2.39797
-2.85331
2.67245
6.1764
0.293865
3.11388
5.19704
3.09933
0.226126
3.88001
-5.65352
-3.69295
-5.8738
-0.372338
4.51111
1.76227
7.99161
5.91277
4.90072
-1.85144
-10.0312
6.49768
-2.06189
5.1657
-1.16847
-4.93483
5.06361
2.38018
-5.72336
0.0381699
-4.89666
-6.95855
-0.509155
8.20794
-9.56411
8.51486
5.67893
1.36419
-4.38923
-0.740404
4.22595
0.13467
10.4659
-1.1315
-6.68771
7.81921
-4.57015
3.60728
0.730038
2.64489
2.01227
1.27224
-5.41548
-9.97139
-2.07291
-1.52804
-4.46518
0.532805
-2.42801
6.20858
-2.6013
3.90555
5.21791
6.22221
-2.1267
-4.08506
6.40782
-2.50227
3.71994
)
;

boundaryField
{
    wall-4
    {
        type            calculated;
        value           uniform 0;
    }
    velocity-inlet-5
    {
        type            calculated;
        value           uniform -3.75095;
    }
    velocity-inlet-6
    {
        type            calculated;
        value           uniform -5.62643;
    }
    pressure-outlet-7
    {
        type            calculated;
        value           nonuniform List<scalar> 8(3.25694 7.7557 4.47347 9.65823 7.42445 5.19312 5.81064 8.94079);
    }
    wall-8
    {
        type            calculated;
        value           uniform 0;
    }
    frontAndBackPlanes
    {
        type            empty;
        value           nonuniform List<scalar> 0();
    }
}


// ************************************************************************* //
