/*--------------------------------*- C++ -*----------------------------------*\
| =========                 |                                                 |
| \\      /  F ield         | OpenFOAM: The Open Source CFD Toolbox           |
|  \\    /   O peration     | Version:  2206                                  |
|   \\  /    A nd           | Website:  www.openfoam.com                      |
|    \\/     M anipulation  |                                                 |
\*---------------------------------------------------------------------------*/
FoamFile
{
    version     2.0;
    format      ascii;
    arch        "LSB;label=32;scalar=64";
    class       volVectorField;
    location    "97";
    object      U;
}
// * * * * * * * * * * * * * * * * * * * * * * * * * * * * * * * * * * * * * //

dimensions      [0 1 -1 0 0 0 0];

internalField   nonuniform List<vector> 
918
(
(0.98516 -0.000508469 0)
(0.00501928 2.96624 0)
(0.0100732 0.874606 0)
(0.979705 0.00214493 0)
(-0.0124235 2.06245 3.76218e-20)
(-0.00705207 2.9488 -2.42353e-18)
(0.824615 1.17129 4.50446e-19)
(0.105393 0.0788607 -1.459e-20)
(0.999909 -0.000275495 0)
(0.0665249 0.743041 0)
(0.020561 0.481232 0)
(0.731843 0.00726764 0)
(0.0110981 2.93041 0)
(0.0026447 2.79523 0)
(-0.018112 3.1449 7.82932e-19)
(-0.0207898 1.91995 1.20351e-20)
(0.286573 0.0628084 1.02132e-18)
(0.190274 1.14897 3.16021e-19)
(0.962709 0.00501244 0)
(0.00829016 0.405207 0)
(-0.00561161 0.0225986 -6.67665e-19)
(1.00197 -0.00497407 0)
(1.00023 -0.00978301 0)
(0.975741 -0.00643823 0)
(0.598027 0.0313419 0)
(0.0138656 2.6431 0)
(-0.0148545 2.91 8.88639e-19)
(0.0175389 0.918656 0)
(-0.0206178 1.18475 0)
(0.0204303 0.902551 0)
(-0.0157945 2.58394 0)
(-0.00137905 2.11638 -3.00477e-20)
(-0.0112234 1.89978 0)
(-0.0206036 2.98761 -8.69763e-23)
(-0.0166804 3.00528 1.88338e-18)
(0.00209649 3.00017 0)
(0.871485 -0.00966231 0)
(0.398993 0.926855 1.82518e-19)
(0.81135 1.18473 -5.14486e-19)
(0.962754 1.03112 5.61839e-19)
(0.678725 1.27666 -1.05105e-19)
(0.678053 1.25087 6.01282e-19)
(0.13469 0.118818 1.4232e-20)
(0.140889 0.0603699 0)
(1.16836 0.567287 0)
(0.0987556 0.0908263 6.41218e-20)
(0.0735564 0.0554171 -6.65516e-20)
(0.919932 -0.00745808 0)
(1.00027 0.000162961 0)
(0.999909 0.000340092 0)
(1.00363 -0.00775687 0)
(1.00096 -0.000916653 0)
(1.00017 3.8564e-05 0)
(0.0725876 1.82544 -7.74175e-19)
(0.0330318 0.94605 0)
(0.0985587 0.822963 0)
(0.0150841 0.893187 0)
(0.0417232 0.661728 0)
(0.00737907 2.01602 0)
(0.00295601 0.77036 0)
(0.0201981 0.504653 0)
(-0.00155177 0.757623 0)
(0.0143335 0.460103 0)
(0.842251 -0.0156533 0)
(0.842369 0.027245 0)
(0.757667 0.00417877 0)
(0.800698 0.0295607 0)
(0.700808 0.019324 0)
(0.014678 3.00041 8.97713e-19)
(0.0114775 3.00809 0)
(0.00610133 3.00272 0)
(0.0135286 2.99737 1.01736e-23)
(0.00795921 2.95849 -1.33422e-18)
(0.0144995 2.98205 0)
(0.0108884 2.90356 0)
(0.0242514 2.931 2.02708e-24)
(0.00477123 2.82498 0)
(0.0299416 2.91667 0)
(-0.0047319 2.74556 0)
(0.302555 3.53471 0)
(-0.131506 3.61469 0)
(0.136233 3.23464 -7.28579e-19)
(-0.0142355 2.97515 0)
(-0.0281455 1.98697 0)
(-0.00707384 2.17029 -1.18702e-20)
(-0.0146141 1.92844 6.58866e-21)
(0.337192 0.137161 -3.54572e-19)
(0.317303 0.0380566 -3.44676e-19)
(0.291271 0.13986 -1.06214e-18)
(0.249912 0.0681689 -6.89852e-19)
(0.229863 0.986171 0)
(0.273688 1.29822 -3.68262e-19)
(0.369265 1.23454 6.14907e-19)
(0.987419 0.00858342 0)
(0.941839 0.00580235 0)
(1.0003 0.000581819 0)
(1.00286 0.00931051 0)
(1.00301 0.00847658 -2.76049e-18)
(0.991906 0.00969273 2.08461e-18)
(-0.0103624 0.745815 0)
(0.0137091 0.415979 0)
(-0.055902 1.00878 0)
(-0.0323392 0.79644 0)
(0.000624859 0.405733 0)
(-0.0879763 0.0919854 2.07202e-19)
(0.0484055 0.0648822 0)
(0.993556 -0.00836843 0)
(0.954475 -0.00653437 0)
(0.74345 0.0302234 0)
(0.677798 0.0288186 0)
(0.660683 0.0266094 0)
(0.9731 -0.00704851 0)
(0.585001 0.0740347 0)
(0.458658 -0.000693213 1.54843e-18)
(-0.0376261 2.86077 6.48778e-19)
(0.0409444 2.90994 0)
(0.0531008 2.88671 0)
(-0.00466173 2.70135 0)
(-0.0132249 2.98526 8.39723e-19)
(-0.0177234 2.89501 0)
(-0.0153572 2.98807 -2.60716e-18)
(-0.0132973 2.92518 8.92977e-19)
(-0.0395157 1.35654 0)
(-0.00847539 1.38929 0)
(-0.00728823 2.13553 5.78212e-22)
(-0.00637253 2.09714 0)
(-0.0231267 1.90739 0)
(0.938718 -0.00734802 0)
(0.857693 -0.009974 0)
(0.862532 0.0057525 0)
(0.949682 -0.00778224 0)
(0.88415 -0.00820229 0)
(0.509856 1.11938 -2.30259e-19)
(0.559223 1.1706 0)
(0.363865 0.871495 3.3858e-20)
(0.307142 0.730579 0)
(0.924996 1.06715 -1.55086e-19)
(1.04458 0.876459 3.17052e-19)
(0.361664 1.36094 0)
(0.530495 1.33237 0)
(0.551246 1.27134 0)
(0.121321 0.183173 -3.04097e-19)
(0.162908 0.11604 0)
(0.174296 0.099913 1.89848e-19)
(1.01513 0.930706 0)
(1.08932 0.78362 0)
(1.11477 0.7253 -2.53073e-19)
(1.14771 0.626888 0)
(1.19744 0.409423 5.79413e-20)
(0.957817 -0.0086792 0)
(0.962547 -0.010019 0)
(0.901814 -0.00798939 0)
(0.984213 -0.00913949 0)
(0.974729 -0.0093211 0)
(0.937155 -0.00637561 0)
(1.00019 0.00234128 0)
(1.0009 0.00141831 0)
(0.999909 0.000855999 0)
(0.0355709 2.07025 4.28873e-19)
(0.118293 1.7685 0)
(0.0182502 2.18352 6.59867e-19)
(0.0458502 1.87971 -5.50079e-19)
(0.107466 1.1513 -2.58769e-19)
(0.0504028 1.02726 0)
(0.144555 0.989165 0)
(0.00900773 0.845375 0)
(0.0214691 0.597543 0)
(-0.000714249 2.24033 -8.02096e-22)
(0.0162764 2.01955 0)
(-0.00162469 2.24347 -2.68883e-20)
(0.00882614 2.02622 4.03304e-20)
(0.00616885 0.813696 0)
(0.00455744 0.789472 0)
(0.0161492 0.545946 0)
(-0.0056392 0.748484 0)
(0.00811215 0.44014 0)
(0.938948 0.00989169 0)
(0.851114 -0.0145869 0)
(0.92797 0.000514081 0)
(0.842958 -0.0128695 0)
(0.809277 0.00125342 0)
(0.899288 0.0208587 0)
(0.875324 0.0244183 0)
(0.783071 0.00139547 0)
(0.00569024 3.06489 -8.34151e-21)
(0.0167636 3.05769 0)
(0.0147024 2.969 0)
(0.00870349 2.87616 0)
(0.9167 3.94396 0)
(1.22898 3.27797 9.20799e-19)
(0.068423 3.06753 0)
(-0.0294653 2.90115 0)
(-0.011357 1.413 0)
(-0.0338581 1.70277 0)
(-0.0202142 1.54289 0)
(-0.0311823 2.54364 -9.40198e-21)
(-0.0159006 2.23854 0)
(-0.0216436 2.38441 0)
(-0.000580554 1.95496 9.3573e-22)
(-0.00365031 2.24056 -1.05716e-20)
(-0.00549591 2.20513 -6.87928e-21)
(-0.008443 1.93983 0)
(0.386992 0.120715 5.42289e-19)
(0.367239 0.0240602 -5.3216e-19)
(0.25801 1.58341 0)
(0.278308 0.759438 -3.16686e-19)
(0.176698 1.6709 -1.04909e-18)
(0.225406 1.22136 1.05135e-18)
(0.901897 0.00623505 0)
(0.967317 0.0112144 0)
(0.974506 0.0108405 0)
(0.923246 0.00633624 0)
(-0.0081247 0.744397 0)
(-0.00909386 0.741806 0)
(0.00872259 0.42131 0)
(0.0889949 0.0674308 5.89052e-19)
(0.0865607 0.0397513 -6.91019e-19)
(0.0482891 0.0509151 0)
(1.10245 0.0872878 2.72385e-20)
(1.0844 0.0400776 0)
(1.01547 0.0405039 0)
(0.90884 -0.00494042 0)
(0.439536 0.103549 0)
(0.498602 0.0870694 -2.47529e-18)
(0.410465 0.0176875 9.26201e-19)
(0.00851811 2.98078 6.99011e-19)
(-0.0325398 2.86511 4.67745e-20)
(0.00356527 3.05027 -1.76787e-20)
(0.0202733 3.04331 6.28975e-19)
(-0.0150115 2.9966 2.9344e-20)
(-0.0129257 2.94949 -1.18113e-22)
(-0.017244 3.01191 -5.4388e-19)
(0.014878 3.02372 3.93666e-19)
(0.00739567 3.03682 -6.2271e-19)
(0.93427 -0.00113393 0)
(0.939654 -0.00313916 0)
(0.846278 -0.00945839 0)
(0.956362 0.0120774 0)
(0.942373 0.0134969 0)
(0.881263 0.00571616 0)
(0.916323 0.0174014 0)
(0.925428 0.0153754 0)
(0.837051 0.00305856 0)
(0.712286 1.39627 3.4959e-20)
(0.745796 1.5049 0)
(0.17855 0.309231 7.06723e-20)
(0.229012 0.665606 5.68138e-19)
(0.260654 0.714943 -3.32024e-19)
(0.259909 0.513225 6.61316e-19)
(0.347145 0.811074 1.60026e-18)
(0.141194 0.229968 3.77761e-19)
(0.250978 0.140475 7.29846e-19)
(0.212361 0.131142 1.89001e-19)
(0.212263 0.0818532 3.57715e-19)
(1.18635 0.467674 6.61183e-20)
(1.20068 0.258981 6.09772e-20)
(0.0104657 2.23231 2.53917e-19)
(0.0402879 1.9482 0)
(0.972012 0.0296866 0)
(0.944179 0.0140859 0)
(0.87027 -0.0177024 0)
(0.011228 3.07407 0)
(0.0195371 2.94406 1.14774e-18)
(0.0163993 2.95622 0)
(0.00649184 2.85061 -1.1384e-18)
(0.00641757 3.09103 2.78106e-19)
(0.00719713 3.08277 0)
(0.778474 1.80579 -1.56303e-19)
(1.23675 2.48002 3.95022e-19)
(0.760459 1.94502 -1.21693e-18)
(0.0193643 2.97971 -6.0064e-19)
(0.0348782 2.99803 0)
(-0.0347638 2.87557 0)
(-0.00379083 2.22348 -1.32563e-20)
(-0.00311714 2.24461 1.71054e-20)
(0.0021117 1.98916 -7.3701e-21)
(0.278249 1.39341 1.02709e-18)
(0.240381 0.555596 -7.04082e-19)
(0.0636889 1.99523 7.62635e-19)
(0.134846 1.88154 -9.10698e-19)
(0.179823 1.51203 9.53086e-20)
(0.00275655 3.11816 -1.72953e-18)
(0.0167149 3.11794 1.85367e-18)
(-0.00927407 2.98087 7.69799e-19)
(-0.00354274 2.97718 -7.25881e-19)
(-0.0211321 2.88106 -7.8402e-19)
(0.00858054 3.09914 -2.06525e-18)
(0.00198887 3.10673 2.01534e-18)
(0.282744 0.692888 0)
(0.24803 0.681066 -1.18362e-18)
(0.0951432 0.222871 5.25399e-19)
(0.358429 0.939123 1.11807e-18)
(0.196344 0.276749 -1.72393e-18)
(1.19064 0.176588 6.30505e-20)
(1.20099 0.314051 0)
(1.17901 0.123807 -5.90628e-21)
(0.00176651 2.25155 -1.46295e-21)
(0.00517343 2.24257 0)
(0.0247214 1.9843 0)
(0.33949 1.30224 -3.68569e-19)
(0.375257 1.15125 -8.02375e-19)
(0.211119 0.379661 1.43152e-18)
(1.00588 -0.0108219 0)
(1.00767 -0.00762973 5.09229e-19)
(-0.0332299 1.33806 0)
(-0.0449503 1.34103 0)
(1.00221 0.00351724 1.81274e-21)
(1.00366 0.00947417 1.03981e-18)
(-0.0198088 2.52863 1.19173e-20)
(-0.0246281 2.5712 0)
(0.0335882 3.17615 3.93449e-19)
(0.387204 3.47954 0)
(1.17937 0.669242 -5.65417e-20)
(1.01282 0.0131559 -2.13301e-21)
(1.02137 -0.0102584 0)
(1.0017 0.000138435 8.11388e-23)
(0.113307 1.37481 0)
(0.143083 2.56123 0)
(0.0358584 1.31666 0)
(0.000930964 2.61322 2.72481e-20)
(-0.0202308 2.57095 3.81631e-22)
(0.999655 0.0311148 2.51666e-21)
(1.06335 0.00494422 0)
(1.09801 0.0256367 0)
(-0.0320313 1.74709 0)
(-0.0182774 2.57254 0)
(-0.0043151 1.32776 0)
(0.311661 1.48784 -1.65515e-19)
(1.01131 -0.00960607 0)
(1.0094 -0.0149132 0)
(1.00237 0.000764652 6.50836e-19)
(1.00547 -0.0047928 -7.64909e-19)
(1.00118 -0.000964572 0)
(-0.0196821 1.47909 0)
(-0.00673455 1.39575 0)
(-0.0114035 1.43846 0)
(-0.00964021 1.31425 0)
(-0.0237003 1.30248 0)
(-0.0115032 1.28702 0)
(1.03511 -0.00599423 0)
(1.0198 0.0161841 -9.13307e-22)
(0.825717 1.2799 2.61507e-19)
(1.00224 0.000330841 -6.48225e-19)
(1.00406 0.00526722 7.59016e-19)
(1.00118 0.00208042 0)
(1.0127 0.0103972 6.45315e-19)
(1.00797 0.00832251 -7.81861e-19)
(1.00855 0.0146866 0)
(-0.0237024 2.59987 0)
(-0.026156 2.579 -2.21283e-20)
(-0.0231954 2.59333 1.56058e-20)
(1.24001 0.270493 5.831e-19)
(1.1641 0.0880265 0)
(0.0396556 3.07872 -8.85949e-19)
(0.0646675 2.85759 -6.44526e-20)
(0.13616 3.19233 1.34602e-18)
(0.132174 3.21914 -1.87865e-19)
(0.131556 3.22888 0)
(0.0192941 3.13707 2.28497e-19)
(0.0732786 3.16022 8.7373e-19)
(0.0665686 3.18458 -4.30872e-19)
(0.0216487 3.13019 0)
(0.551066 0.279609 0)
(0.482171 0.297231 0)
(1.15209 0.705752 1.27571e-19)
(1.14479 0.827725 -1.10119e-19)
(1.20736 0.592008 0)
(1.23441 0.525248 0)
(1.016 0.013414 -1.20278e-18)
(1.01491 0.0143076 1.51011e-18)
(1.02543 -0.00978095 0)
(1.02349 -0.0118302 0)
(1.00643 0.00267025 0)
(1.01043 0.00377889 0)
(1.00458 0.00188273 0)
(1.00978 0.0062788 0)
(1.0078 0.00597222 0)
(1.0045 0.00474203 0)
(0.101957 1.37351 0)
(0.0990363 1.33482 0)
(0.132369 1.41011 0)
(0.150097 1.41393 0)
(0.14521 2.58637 0)
(0.184577 2.65705 -4.23931e-19)
(0.101626 2.64121 0)
(0.085347 2.64432 1.99275e-19)
(0.0393727 2.66758 -1.48587e-19)
(0.0240722 1.33516 0)
(0.0337001 1.24917 0)
(0.0261396 1.34571 0)
(0.0471718 1.27027 0)
(0.00525956 1.97964 4.91295e-21)
(-0.019148 2.59861 -2.27745e-20)
(-0.00697054 2.6544 1.1622e-20)
(-0.016843 2.67466 0)
(-0.0222488 2.60438 4.19185e-21)
(-0.0222842 2.59946 1.8861e-20)
(0.0140102 1.97752 -5.11061e-23)
(-0.00664289 2.38452 3.05512e-20)
(-0.0120579 2.408 -1.31821e-20)
(1.0118 0.040042 1.21732e-18)
(1.00555 0.0212201 -1.51562e-18)
(1.004 0.0472854 -1.24029e-18)
(0.978755 0.0377749 1.56077e-18)
(1.06455 0.00873683 0)
(1.04964 -0.00810441 0)
(1.09514 0.0356587 0)
(1.07475 0.0133275 0)
(1.07257 0.0011119 0)
(1.14104 0.0848026 0)
(1.11265 0.0455036 0)
(1.11692 0.0331678 0)
(-0.026543 2.42318 1.84889e-21)
(-0.0161118 2.0141 0)
(-0.0189056 2.21237 0)
(-0.0202282 2.59299 -1.34901e-20)
(-0.0173011 2.60311 2.85979e-22)
(0.00235586 1.59167 -4.44018e-20)
(-0.0102881 1.51933 4.52793e-20)
(-0.0179625 1.4086 0)
(-0.0224735 1.41626 0)
(-0.0300736 1.40995 0)
(-0.00123736 1.3298 0)
(0.0164957 1.24264 0)
(0.388383 1.50527 2.68427e-19)
(0.431806 1.50583 1.43909e-19)
(0.596374 2.4369 -2.41128e-19)
(0.396754 2.53447 7.09326e-19)
(0.348111 2.04507 7.32738e-20)
(1.0211 -0.00808559 0)
(1.01552 -0.00972791 0)
(1.01493 -0.0154947 0)
(1.00741 -0.00104329 0)
(1.00493 -0.000896915 0)
(1.00779 -0.00466733 0)
(1.00928 -0.0035773 0)
(1.01424 -0.00433613 0)
(1.02052 0.0166781 1.17846e-18)
(1.01752 0.0158761 -1.51028e-18)
(1.02082 0.0189737 -1.1875e-18)
(1.01826 0.0175275 1.48874e-18)
(0.78909 1.33008 0)
(0.723868 1.38178 2.45679e-19)
(0.902196 1.22994 9.8332e-20)
(0.947928 1.17587 -1.30867e-19)
(1.15012 2.59179 2.9024e-19)
(0.76319 0.123744 6.03086e-19)
(1.16462 0.110938 0)
(1.21448 0.19699 -4.69445e-19)
(1.20206 0.157171 -2.00225e-20)
(1.00584 0.159353 0)
(0.125501 2.96056 5.13196e-19)
(0.101415 2.86628 -1.11851e-18)
(0.00862053 2.37748 7.45426e-19)
(0.108922 -0.180057 -3.00664e-19)
(0.332224 3.4101 -2.19047e-19)
(0.188455 3.30662 0)
(0.232265 3.34563 2.8528e-19)
(0.235577 3.03136 -1.72542e-18)
(0.327742 3.18775 0)
(0.00526342 3.12121 4.47401e-20)
(0.0153905 3.1298 -5.28679e-19)
(0.0135832 3.12585 7.78096e-19)
(0.0339291 3.14009 0)
(0.0324382 3.14998 0)
(1.20406 2.58856 0)
(0.549796 0.795969 -5.2733e-19)
(1.07147 1.00061 -1.03858e-20)
(1.00749 1.08446 0)
(0.860917 0.9791 -1.09994e-19)
(1.09875 0.901022 2.78819e-20)
(0.250322 0.307214 -8.02595e-19)
(0.637651 0.325167 -1.5271e-20)
(0.5229 0.219458 4.06661e-19)
(0.500667 0.335847 2.90315e-20)
(0.381708 0.258766 -1.16223e-18)
(0.588268 0.325554 0)
(0.704263 0.432084 6.63847e-19)
(0.701767 0.432309 0)
(0.543731 0.339968 0)
(0.457529 0.236143 0)
(0.833226 0.633762 4.07849e-19)
(1.24147 0.293001 -4.9027e-19)
(1.24232 0.433066 0)
(1.25031 0.373007 0)
(0.669976 0.196038 6.23303e-19)
(0.877191 0.564135 -3.71972e-19)
(0.776338 0.542777 6.64214e-19)
(0.963287 0.453409 -7.35582e-19)
(1.01924 0.0150757 8.10037e-19)
(1.01754 0.0144162 -8.1371e-19)
(1.01574 0.0155159 0)
(1.03659 -0.00553402 0)
(1.02998 -0.00832671 -7.61881e-19)
(1.02803 -0.0119247 7.54311e-19)
(1.02491 0.0107004 0)
(1.0234 0.0144335 0)
(1.01143 0.00420769 0)
(1.01417 0.00922969 0)
(1.01519 0.00423908 0)
(1.0143 0.00294774 0)
(0.0730556 1.35687 0)
(0.0804127 1.30082 0)
(0.149373 1.39214 3.98473e-21)
(0.282624 1.48626 8.7792e-20)
(0.17739 1.45689 1.84322e-19)
(0.209469 1.46216 -3.00644e-19)
(0.17799 1.41801 0)
(0.136441 1.59987 -7.52715e-20)
(0.1198 1.57998 0)
(0.343822 1.99351 -1.06559e-19)
(0.340412 2.33053 6.17206e-19)
(0.196059 1.46821 6.56119e-20)
(0.270024 1.40341 2.15365e-20)
(0.203154 1.39673 -1.7388e-20)
(0.279993 1.34608 -1.09529e-19)
(0.243269 1.57823 0)
(0.269572 1.61461 1.17041e-19)
(0.0312747 2.25137 -3.00703e-20)
(0.0443085 2.65649 0)
(0.0668924 2.38718 1.3924e-19)
(0.0637244 2.40758 0)
(0.0699597 2.65784 -2.2083e-19)
(0.0497338 2.68682 0)
(0.0310568 1.45412 3.51594e-20)
(0.0372633 1.50003 0)
(0.035524 1.41855 0)
(0.0311461 1.4253 -3.96774e-20)
(0.0017339 2.64054 -1.63892e-20)
(0.0304747 2.68589 1.66904e-19)
(0.0113392 2.71134 1.16681e-21)
(0.00718097 1.84018 -8.72458e-21)
(-5.01677e-05 1.69499 -4.54068e-21)
(0.0205781 1.31094 0)
(0.0312849 1.223 0)
(0.0462339 1.59787 -2.53601e-20)
(0.0364356 1.47968 -3.16416e-20)
(0.0399863 1.54195 3.94402e-20)
(0.0414582 1.62102 0)
(-0.0297692 2.26449 1.06556e-19)
(-0.0307359 2.53965 -4.42647e-20)
(-0.0166588 2.43807 5.23116e-21)
(-0.000328758 1.8554 1.05731e-20)
(-0.0252071 2.49024 4.63114e-21)
(-0.0194707 2.43481 -6.989e-21)
(1.01895 0.0223662 -8.07696e-19)
(1.01555 0.0287369 8.10823e-19)
(1.01295 0.0183994 0)
(1.00904 0.0715953 1.13659e-18)
(0.991615 0.0621155 -1.26855e-18)
(0.950821 0.056069 1.41836e-18)
(1.01236 0.112131 -1.51253e-19)
(1.04304 -0.00550066 0)
(1.05151 -0.00105621 7.26565e-19)
(1.03935 -0.00967139 -7.28064e-19)
(1.07228 0.0433689 -4.32207e-20)
(1.06523 0.0244761 3.72677e-19)
(1.06321 0.0577355 0)
(1.05411 0.051104 -1.34089e-19)
(1.03215 0.0425259 0)
(1.02658 0.0385755 0)
(1.0279 0.0138424 0)
(1.02389 0.016677 0)
(1.04025 0.0333423 2.7612e-19)
(1.0389 0.0272281 -6.10395e-19)
(1.05145 0.0349672 -2.92608e-19)
(1.04841 0.0350468 -3.22299e-19)
(1.07178 0.0661459 6.29032e-19)
(1.09739 0.0539108 0)
(1.10696 0.0983798 0)
(-0.0254584 2.26899 5.99783e-20)
(-0.0257735 2.01978 1.70893e-21)
(-0.021791 2.02697 0)
(-0.0268064 2.43735 -5.96889e-20)
(-0.0227596 2.39414 -3.47678e-21)
(-0.0332439 2.46374 6.47973e-21)
(-0.0200007 2.61206 -1.65368e-20)
(-0.0229042 2.55372 4.68294e-22)
(-0.021507 2.50574 -4.96323e-21)
(-0.0153818 2.606 1.30747e-20)
(-0.0202631 2.608 -1.4395e-20)
(-0.00595462 1.52173 -9.36032e-22)
(0.00271702 1.63779 -4.26256e-20)
(0.373492 1.45408 -1.12465e-19)
(0.373443 1.38613 4.42951e-20)
(0.664749 1.43143 -2.37603e-19)
(0.530665 1.49846 -1.41189e-19)
(0.588614 1.46457 0)
(0.592148 2.41404 2.0783e-19)
(0.660708 2.40997 3.38326e-19)
(0.410269 2.50333 8.80773e-20)
(0.401619 2.52746 -6.12669e-19)
(0.50912 2.4681 6.17799e-19)
(0.552156 2.45072 0)
(0.486589 2.50861 -5.60506e-19)
(0.247694 2.58078 1.1451e-18)
(0.353954 2.55272 -7.67882e-20)
(0.283085 2.6424 -1.5889e-18)
(0.947121 2.36681 7.31648e-19)
(0.837049 2.37227 0)
(1.01109 0.000562966 2.64042e-20)
(1.01538 -0.00533352 -2.14162e-20)
(1.0177 -0.00342971 -3.91153e-19)
(1.01507 -0.000793226 3.93298e-19)
(1.01249 0.00131151 0)
(0.652373 1.29454 0)
(0.676323 1.18887 0)
(0.79062 1.10837 0)
(0.669735 1.15159 0)
(1.18056 2.60526 6.03908e-20)
(1.06795 2.3517 0)
(0.830735 2.15554 3.95088e-21)
(0.82169 2.42153 0)
(0.920106 2.51583 -4.29246e-19)
(0.955071 2.47208 2.85501e-19)
(0.795695 0.183812 0)
(0.735912 0.157247 1.63479e-19)
(0.905073 0.153396 9.53241e-19)
(0.821208 0.155925 -3.56409e-19)
(0.774005 0.0902038 -1.10248e-18)
(1.08325 0.244311 -8.9695e-19)
(0.999714 0.308613 -1.80093e-20)
(0.926525 0.312719 8.62904e-19)
(1.00676 0.237895 7.2548e-19)
(0.947164 0.201941 -1.2609e-18)
(0.908025 0.206413 1.57721e-19)
(0.946543 0.273611 -3.34636e-19)
(0.924285 0.232547 0)
(0.995488 0.198549 6.2175e-19)
(1.04729 0.197013 0)
(1.04509 0.225707 0)
(1.10833 0.122945 2.9158e-19)
(1.07242 0.183259 -1.5197e-20)
(1.07669 0.244232 -1.5862e-19)
(1.10208 0.209895 0)
(1.02088 0.0469406 6.22973e-19)
(1.0404 0.0601472 7.77208e-19)
(1.03366 0.0453543 -6.19089e-19)
(1.04246 0.0680664 -5.21448e-19)
(1.0169 0.0764107 -8.00781e-19)
(0.98353 0.161711 0)
(0.988864 0.106721 0)
(0.965951 0.077191 -5.04636e-19)
(0.903621 0.0980716 2.00843e-19)
(1.04043 0.109137 7.20246e-19)
(1.0697 0.126346 -8.40968e-19)
(1.07688 0.159079 7.50905e-19)
(1.03214 0.153756 0)
(1.07521 0.113659 0)
(1.0542 0.0943013 -3.4469e-19)
(1.04475 0.100071 -5.87713e-19)
(0.57777 1.04805 1.44548e-19)
(0.600177 1.36996 -4.65361e-20)
(1.15098 2.72254 -2.34723e-19)
(1.21598 3.06482 3.79489e-21)
(1.24189 2.70416 -1.33697e-19)
(1.26952 2.68686 -2.59588e-20)
(1.19573 2.32584 -1.13912e-20)
(1.20374 2.96833 -1.00319e-19)
(1.22435 2.93388 2.44928e-19)
(1.20569 3.21684 -1.3932e-19)
(1.36447 2.94641 1.92415e-19)
(1.35199 2.86397 0)
(0.573621 0.806701 -5.10198e-20)
(0.0938919 1.21365 5.59947e-19)
(0.564656 0.312817 5.30345e-19)
(0.397451 0.057834 5.66033e-19)
(0.435799 0.306383 6.59639e-19)
(0.537014 0.426584 -1.07266e-18)
(0.540559 0.420791 8.77467e-19)
(0.434305 0.278482 -3.30989e-19)
(0.275143 0.204137 7.44091e-19)
(0.699472 0.271815 -3.60498e-19)
(0.654041 0.293701 0)
(0.584372 0.209103 6.22103e-21)
(0.740688 0.516613 3.59518e-19)
(0.723826 0.487581 -1.30669e-18)
(0.617914 0.449612 8.81048e-21)
(0.607803 0.439684 0)
(0.699343 0.721216 3.97264e-19)
(0.861644 0.785328 3.93353e-19)
(0.786744 0.869097 -4.60469e-19)
(0.907277 0.82235 -1.53552e-19)
(0.938871 0.867769 -3.69988e-20)
(0.945899 0.867535 3.78884e-20)
(0.872285 0.667724 -6.75844e-19)
(0.952111 0.719913 1.42559e-19)
(1.01282 0.734631 0)
(1.00333 0.710778 -1.92593e-19)
(1.0297 0.349612 2.12371e-19)
(1.15153 0.309858 2.88713e-19)
(1.07129 0.282034 3.6657e-19)
(1.02048 0.382631 -4.31978e-19)
(1.0699 0.445087 0)
(1.12619 0.424906 0)
(0.920884 0.385629 1.28782e-21)
(0.83506 0.319897 0)
(0.885924 0.31935 4.07258e-19)
(0.909817 0.320921 -8.36897e-21)
(0.958363 0.457229 2.04882e-18)
(0.920159 0.513456 5.25858e-19)
(0.923947 0.479849 -5.61294e-19)
(0.837496 0.468955 6.03273e-19)
(0.820371 0.463446 3.61837e-19)
(0.788182 0.445622 -3.55102e-19)
(1.02744 -0.000135853 6.51698e-19)
(1.02007 0.000159949 0)
(1.01858 0.00108307 4.2494e-19)
(1.02181 -0.00143848 -9.62634e-19)
(1.0224 0.00463089 4.67648e-19)
(1.02033 0.0116815 -9.79303e-19)
(1.02122 0.0110812 0)
(1.02044 0.0113166 -2.04105e-19)
(1.01595 0.00793952 5.12032e-19)
(1.01658 0.010757 -2.55555e-19)
(1.01729 0.010118 1.88142e-19)
(0.0370127 1.33319 0)
(0.0438744 1.3898 0)
(0.0534109 1.3333 0)
(0.0609474 1.2777 0)
(0.0762013 1.4067 -4.06536e-20)
(0.08663 1.37239 1.90924e-20)
(0.114993 1.5502 -1.70109e-20)
(0.108452 1.39575 -2.75203e-21)
(0.0417602 1.48471 1.652e-20)
(0.0453787 1.47841 -1.27085e-20)
(0.0692766 1.39441 -1.12101e-20)
(0.0618381 1.3951 4.18447e-20)
(0.0564568 1.37235 6.27928e-21)
(0.0469963 1.39627 3.45343e-21)
(0.107495 2.35449 -1.53885e-19)
(0.0962429 2.40362 0)
(0.169218 2.02909 1.10472e-19)
(0.114577 1.702 4.18129e-20)
(0.234654 2.02744 -9.14246e-20)
(0.198671 2.41663 0)
(0.261444 2.36657 -6.12235e-19)
(0.30152 2.36428 4.32402e-19)
(0.22827 1.98683 -2.5473e-19)
(0.154873 2.14493 1.72125e-19)
(0.141206 2.25056 0)
(0.0194811 1.87551 3.92829e-21)
(0.00192862 2.37906 -3.31505e-20)
(0.00721063 2.13763 0)
(0.0122667 2.44348 -1.36532e-20)
(0.030013 2.28613 9.77015e-21)
(0.0194108 1.4331 -7.89367e-21)
(0.0184698 1.41547 1.34896e-19)
(0.016486 1.4245 -4.47485e-20)
(0.0242029 1.43047 -3.72989e-20)
(0.0291673 1.45804 0)
(0.0121277 1.40889 0)
(0.00575511 1.31063 -6.16837e-20)
(0.00912728 1.40254 1.78612e-20)
(0.0145798 1.39993 0)
(0.0143059 1.30047 -4.50274e-20)
(0.027856 1.21322 9.25072e-20)
(1.04087 0.0121647 0)
(1.04712 0.00844643 -6.8187e-20)
(1.03893 0.0227292 -4.91839e-19)
(1.04863 0.0214101 0)
(1.05247 0.021191 0)
(1.03656 0.0124357 -6.81926e-21)
(1.03123 0.0122806 7.905e-19)
(1.03176 0.0173313 9.58672e-19)
(1.02555 0.0212812 0)
(1.02251 0.0218706 0)
(1.03541 0.0263254 4.90653e-19)
(1.0259 0.0281034 0)
(1.02403 0.0277246 0)
(-0.0169955 2.02241 0)
(-0.00040732 1.66538 -3.87119e-21)
(-0.00455913 1.76786 -3.19073e-20)
(0.000613969 1.41033 0)
(-0.00420715 1.57311 -2.38541e-20)
(-0.0101819 1.48773 1.49576e-20)
(-0.00711647 1.42919 0)
(0.387269 1.63143 0)
(0.376363 1.31137 -8.57934e-20)
(0.299614 1.33924 0)
(0.427962 1.31003 2.21349e-20)
(0.479217 1.47613 0)
(0.459534 1.42003 1.91085e-20)
(1.03526 2.66752 -1.54819e-20)
(0.967281 2.39523 -9.19302e-19)
(0.920056 2.18388 1.02839e-18)
(0.851139 2.36401 2.43523e-19)
(0.846509 2.47617 0)
(0.916147 2.47256 0)
(0.930477 2.36012 0)
(0.909458 2.34976 -9.50437e-19)
(0.684796 2.4395 -4.01037e-19)
(0.798574 2.42889 -9.9022e-20)
(0.808507 2.40322 7.52263e-20)
(0.694295 2.38287 0)
(0.79959 2.37796 0)
(0.75763 2.39164 -3.70255e-19)
(0.766158 2.46605 0)
(0.638297 1.09594 0)
(0.478861 0.891705 -5.28353e-19)
(0.575787 0.943263 -3.33319e-20)
(0.517405 1.02617 0)
(0.51775 0.965896 7.89698e-19)
(0.807136 0.891208 -1.30264e-19)
(0.815099 1.02573 0)
(0.790644 0.992679 1.8599e-19)
(0.675828 1.03649 0)
(0.676425 0.939813 0)
(1.1606 2.74531 -2.34306e-19)
(1.13795 2.80905 -1.0188e-19)
(0.925849 2.32188 1.08932e-19)
(0.894021 2.30147 -8.54506e-20)
(1.12643 2.71791 0)
(1.08068 2.68724 1.0278e-19)
(1.08526 2.46988 -3.15507e-19)
(0.979491 2.22293 -2.97746e-20)
(0.489361 1.32194 0)
(0.506094 1.05545 -1.27362e-19)
(0.580767 1.16955 0)
(0.848522 0.251496 0)
(0.756096 0.20051 0)
(0.661934 0.154849 0)
(0.83942 0.252392 -6.3325e-19)
(0.726261 0.245528 3.75355e-19)
(0.922072 0.0913569 -4.13815e-19)
(0.924251 0.133379 0)
(0.912542 0.142239 1.78831e-19)
(0.848578 0.118041 7.14983e-19)
(0.812305 0.0789808 -4.47973e-19)
(1.15019 3.3412 -7.09567e-19)
(1.19982 3.2611 0)
(1.14771 3.37064 -1.48034e-18)
(0.636755 3.53299 1.25393e-18)
(0.856059 3.10364 6.64262e-20)
(0.524919 0.77947 6.10163e-19)
(0.419698 0.776928 0)
(0.290674 0.331807 -1.47534e-19)
(0.484394 0.65183 8.55616e-19)
(0.574844 0.323795 -1.89242e-19)
(0.513329 0.463542 2.27017e-19)
(0.671719 0.519523 4.83716e-19)
(0.720474 0.561087 0)
(0.67024 0.572309 0)
(0.637158 0.529495 0)
(1.01235 0.621049 8.7937e-20)
(0.925575 0.56277 -5.12179e-19)
(0.951546 0.593895 3.85647e-19)
(0.980284 0.533606 -3.97292e-19)
(1.08981 0.500075 0)
(1.09886 0.591925 -9.6482e-20)
(0.856114 0.418932 -8.33363e-19)
(0.854256 0.407523 -1.03247e-18)
(0.782984 0.399988 6.31939e-19)
(0.792178 0.388391 -6.42202e-19)
(0.841768 0.344632 -5.21813e-19)
(0.786895 0.340399 6.37774e-19)
(1.02679 0.00620243 -4.9815e-19)
(1.02648 0.00643767 1.01422e-18)
(1.02957 0.00034375 6.31566e-19)
(1.03376 0.0012384 -7.60696e-19)
(1.03397 0.00939708 0)
(1.03023 0.0100829 -1.23766e-18)
(0.0643304 1.63838 1.96155e-20)
(0.0531267 1.59173 0)
(0.0913762 1.68727 1.33409e-19)
(0.0985913 1.66846 -1.18404e-19)
(0.0927507 1.55149 3.04348e-20)
(0.0920411 1.55341 0)
(0.0142434 1.69755 0)
(-0.000942964 1.51673 1.06141e-20)
(6.26477e-05 1.4636 -9.53893e-21)
(-0.00637519 1.56938 5.54618e-21)
(0.0033873 1.88705 1.55785e-20)
(-0.00852648 1.94056 -3.74598e-21)
(0.495252 1.35193 -2.87672e-19)
(0.490646 1.35115 3.16204e-19)
(0.4557 1.3061 -3.88279e-20)
(0.437598 1.28115 8.23391e-21)
(0.644404 1.31371 0)
(0.558618 1.40484 1.00248e-19)
(0.575068 1.41116 -9.75968e-20)
(0.46995 1.29953 3.79409e-20)
(0.525527 1.24514 0)
(0.576455 1.20657 0)
(0.65197 2.39933 5.89111e-19)
(0.668116 2.44105 1.26723e-18)
(0.712325 2.45176 -8.73324e-19)
(0.608363 2.42559 -2.02628e-19)
(0.558852 2.51549 2.8605e-19)
(0.508334 2.49065 -7.62357e-19)
(0.976277 2.36687 -5.75848e-19)
(1.00934 2.37876 0)
(0.923025 2.16181 -6.59462e-19)
(1.05205 2.66613 0)
(1.05444 2.65267 0)
(0.58973 2.24904 -1.41437e-19)
(1.03172 3.14835 1.16175e-19)
(0.903256 3.01948 -1.79025e-20)
(0.25343 0.816777 0)
(0.274732 0.653827 -3.18699e-19)
(0.449897 0.615618 -3.22854e-19)
(0.370723 1.9925 0)
(0.457286 2.7758 -4.62451e-20)
(0.409114 2.53816 0)
(0.725851 0.671424 -8.38212e-19)
(0.809273 0.694722 1.11621e-18)
(0.828672 0.634669 -1.10248e-18)
(0.701394 0.637215 -1.06883e-19)
(0.754625 0.597079 -4.36979e-19)
(0.996604 2.7457 -8.83655e-20)
(1.0395 2.81036 -1.75149e-19)
(0.625313 2.10712 7.29326e-19)
(0.576435 1.67634 -5.18574e-19)
(0.689706 1.88074 -4.19409e-19)
(0.983468 2.43058 -1.13624e-19)
(0.991416 2.42428 3.05879e-19)
(0.641468 1.81156 2.90995e-20)
(0.434998 1.29958 1.48384e-19)
)
;

boundaryField
{
    wall-4
    {
        type            noSlip;
    }
    velocity-inlet-5
    {
        type            fixedValue;
        value           uniform (1 0 0);
    }
    velocity-inlet-6
    {
        type            fixedValue;
        value           uniform (0 3 0);
    }
    pressure-outlet-7
    {
        type            zeroGradient;
    }
    wall-8
    {
        type            noSlip;
    }
    frontAndBackPlanes
    {
        type            empty;
    }
}


// ************************************************************************* //
