/*--------------------------------*- C++ -*----------------------------------*\
| =========                 |                                                 |
| \\      /  F ield         | OpenFOAM: The Open Source CFD Toolbox           |
|  \\    /   O peration     | Version:  2206                                  |
|   \\  /    A nd           | Website:  www.openfoam.com                      |
|    \\/     M anipulation  |                                                 |
\*---------------------------------------------------------------------------*/
FoamFile
{
    version     2.0;
    format      ascii;
    arch        "LSB;label=32;scalar=64";
    class       volScalarField;
    location    "88";
    object      p;
}
// * * * * * * * * * * * * * * * * * * * * * * * * * * * * * * * * * * * * * //

dimensions      [0 2 -2 0 0 0 0];

internalField   nonuniform List<scalar> 
918
(
0.558987
1.16847
0.000646773
0.558458
-0.0127308
1.13545
-0.513697
0.651125
0.539197
-0.1058
-0.0566852
0.541164
0.996219
0.762635
-1.12426
-0.0141899
0.65266
-0.382071
0.538333
-0.0744828
0.673069
0.545728
0.548751
0.539328
0.59839
0.733842
0.877567
0.0314917
0.0126084
0.00742435
-0.0121977
-0.0390984
-0.0339849
1.0191
1.07019
1.0929
0.506903
0.335133
-0.379181
-0.45341
-0.438972
-0.538446
0.65341
0.655181
-0.217244
0.652588
0.650207
0.526197
0.538568
0.539483
0.540489
0.539481
0.540858
0.402929
-0.106948
-0.138259
-0.086596
-0.0797767
0.0487219
-0.055285
-0.0563174
-0.0560292
-0.0577253
0.45594
0.535652
0.53226
0.545387
0.554646
1.10802
1.07995
1.10609
1.01977
1.03624
0.974197
0.946869
0.782747
0.80475
0.748568
0.734225
-1.55218
-2.4963
-0.538254
-0.28962
-0.0108267
-0.0124841
-0.00720833
0.650011
0.651244
0.652917
0.654599
1.07881
-0.37911
-0.482107
0.538479
0.537291
0.545592
0.546295
0.542317
0.541406
-0.0654185
-0.0626959
-0.061238
-0.0692175
-0.0662607
0.644403
0.65134
0.539854
0.536855
0.562412
0.583074
0.572807
0.278413
0.609179
0.625306
0.570571
0.728467
0.721692
0.730665
0.851177
0.81561
0.914416
0.937515
0.0190103
-0.000442111
-0.018473
-0.0215193
-0.0207663
0.502729
0.49526
0.523179
0.510344
0.512855
0.252628
0.120278
0.419573
0.444069
-0.298913
-0.367499
-0.431248
-0.461112
-0.568796
0.615491
0.655949
0.653261
-0.226392
-0.154457
-0.289465
-0.0810495
-0.144483
0.51644
0.52347
0.518459
0.534037
0.528499
0.530464
0.542848
0.539915
0.541476
0.464959
0.588292
0.329232
0.293478
-0.243214
-0.153727
-0.241941
-0.0694041
-0.066735
0.0631907
0.0891566
0.0351416
0.0231332
-0.0628742
-0.0582952
-0.0602139
-0.0576285
-0.0591722
0.448642
0.437348
0.468664
0.476245
0.522395
0.523809
0.528187
0.526274
0.897619
0.920002
0.927586
0.901267
-3.4782
-6.24596
0.032067
0.167162
-0.00714444
-0.0100782
0.00177267
-0.00639515
-0.000512957
-0.00229911
-0.0127681
-0.0141554
-0.00882687
-0.00775261
0.645134
0.645735
1.00195
1.01015
0.976557
0.929753
0.526768
0.528801
0.534271
0.530172
-0.0599549
-0.0612328
-0.0602121
0.649824
0.647719
0.649096
0.239645
0.149259
0.329766
0.359125
0.638811
0.628163
0.637158
0.630772
0.667812
0.944933
0.963138
0.961348
0.969689
1.01369
1.03005
0.995483
0.482104
0.492124
0.487052
0.525985
0.523909
0.524745
0.521213
0.522197
0.520361
-0.0293486
-0.407069
0.491109
0.507004
0.493601
0.494963
0.695771
0.774596
0.654257
0.655036
0.654633
-0.0109168
-0.0695037
0.24844
0.213945
0.387806
0.424443
0.403252
0.868949
0.829034
0.879273
0.85244
0.813707
0.839707
-0.358784
-1.85018
-0.973764
0.513886
0.329799
0.416497
0.00467624
-0.0122597
-0.00751674
1.00286
1.07395
0.644025
0.819573
0.821511
0.701325
0.729838
0.78998
0.717788
0.751314
0.783317
0.76081
0.570981
0.504324
0.521315
0.84341
0.898841
0.1185
0.0557509
0.0120438
0.108483
0.166422
0.140132
1.03363
0.951982
1.0216
0.536617
0.537343
-0.00857867
-0.0239916
0.541611
0.541669
-0.0143753
-0.00420757
0.399082
-0.831582
0.0957581
0.530231
0.520048
0.537216
-0.091273
0.354277
-0.0558229
0.0447748
-0.0136792
0.531547
0.467111
0.426088
-0.00339781
-0.0238628
-0.0645297
-0.212239
0.534287
0.532591
0.536683
0.537618
0.538303
-0.0226027
-0.0187836
-0.0124096
-0.0585473
-0.0497022
-0.0652689
0.501071
0.520191
-0.171118
0.536834
0.538974
0.53879
0.532082
0.537697
0.535959
-0.0145937
-0.0186167
-0.0212566
0.219162
0.352589
0.6348
0.718737
0.608325
0.386478
0.153656
0.540322
0.602088
0.509661
0.661071
0.651379
0.64815
0.161149
0.0102266
0.170721
0.112603
0.528088
0.526831
0.518297
0.51525
0.532084
0.530194
0.534761
0.531793
0.534746
0.536121
-0.0479668
-0.0738947
-0.0837162
-0.15048
0.309034
0.569666
0.254227
0.283366
0.139725
-0.0512509
-0.0529569
-0.0532584
-0.0597662
-0.00174764
-0.029488
0.039097
0.0386687
0.0091871
-0.0163478
-0.0126186
-0.0243652
-0.0173131
0.524826
0.524732
0.529595
0.538151
0.476804
0.480585
0.445266
0.466156
0.451288
0.389663
0.425363
0.400426
-0.00889762
-0.00165952
-0.00537861
-0.0224869
-0.019031
-0.0398282
-0.0368371
-0.031659
-0.0280993
-0.0350191
-0.0576392
-0.062389
-0.169856
-0.286107
0.988664
0.907648
0.141135
0.523425
0.529891
0.526647
0.531591
0.534721
0.535513
0.533214
0.529757
0.520516
0.522214
0.518715
0.519637
-0.101519
-0.24417
-0.0724234
-0.148495
0.148004
0.629894
0.364482
0.299262
0.294812
0.524645
0.903359
0.684497
0.650217
0.636853
-0.346637
0.0378225
-0.284669
0.326395
0.158853
0.636554
0.683793
0.703782
0.653454
0.607583
-0.0957926
0.557597
-0.0768942
-0.0237782
0.17892
0.0527741
0.638579
0.640247
0.64621
0.640178
0.649062
0.642181
0.622053
0.624188
0.639951
0.646934
0.480091
0.249813
0.19995
0.161466
0.644981
0.513943
0.56254
0.489449
0.52333
0.525925
0.524598
0.505907
0.513504
0.509019
0.515597
0.51915
0.52779
0.528277
0.523518
0.525649
-0.0547415
-0.0605999
-0.0247436
-0.134567
-0.127305
-0.189879
-0.0587756
0.0765248
0.0378535
0.238325
0.34145
0.0533713
-0.0558684
-0.0287724
0.0149372
0.181441
0.210258
0.0738285
0.160235
0.153106
0.133478
0.236461
0.23918
-0.0326614
-0.0333548
-0.0375469
-0.0411935
0.016074
0.087966
0.0970789
-0.0133307
-0.017069
-0.0513388
-0.0544823
-0.0233632
-0.0282664
-0.023962
0.00400383
-0.0569999
-0.0247807
-0.0111736
-0.0134308
-0.0120008
-0.0171561
0.519487
0.521279
0.521476
0.530525
0.542635
0.557339
0.522925
0.499079
0.489833
0.492838
0.465742
0.476073
0.471907
0.485549
0.506848
0.51537
0.513676
0.516486
0.498852
0.500553
0.487046
0.490731
0.465773
0.446318
0.434238
-0.0472606
-0.00909312
-0.0175402
-0.0421738
-0.0126481
-0.0243036
-0.0164533
0.00285476
-0.0142581
-0.0148018
-0.0248297
-0.0328648
-0.0326676
-0.0715131
0.0158674
-0.184372
-0.218919
-0.292775
0.891229
1.01543
0.809487
0.582436
0.603911
0.847278
0.930903
0.54214
0.735165
0.757932
0.589939
0.857423
0.52828
0.527873
0.525472
0.524947
0.526169
-0.00510631
0.102358
0.0979789
0.16345
0.279817
0.390501
0.324567
0.198991
0.328187
0.330321
0.622135
0.634019
0.590569
0.614765
0.615737
0.426321
0.501978
0.553662
0.514753
0.567347
0.589179
0.542778
0.576317
0.525031
0.480182
0.476277
0.426021
0.445508
0.420958
0.404165
0.518886
0.495475
0.506418
0.496546
0.518708
0.544878
0.541964
0.564641
0.579679
0.499335
0.454433
0.463698
0.49392
0.455546
0.471027
0.48683
0.237449
0.140322
0.223059
-0.0608574
0.00669157
-0.00452398
-0.0539047
-0.000863525
0.282861
-0.406009
-0.383299
-1.00756
0.508376
0.94454
0.558048
0.538688
0.648878
0.638135
0.643065
0.659083
0.651883
0.633393
0.641109
0.646164
0.589862
0.61098
0.625298
0.622439
0.525163
0.379889
0.380122
0.327097
0.197172
0.237674
0.432881
0.357469
0.282661
0.282706
0.457432
0.343438
0.414318
0.446627
0.377541
0.33217
0.535977
0.602064
0.595118
0.569035
0.477819
0.489116
0.514315
0.548015
0.57115
0.605755
0.515009
0.520971
0.5222
0.51967
0.516932
0.520032
0.520288
0.522873
0.523489
0.526509
0.525579
-0.0519797
-0.0387443
-0.0493334
-0.0607335
-0.0170412
-0.019553
0.023784
0.0114042
-0.015936
-0.0114419
-0.032367
-0.0364606
-0.0335851
-0.0262861
0.10349
0.115921
0.100383
0.060816
0.252434
0.381612
0.456196
0.330947
0.225863
0.249801
0.267944
-0.0134673
0.011085
-0.00139812
0.0384014
0.0310504
-0.0432932
-0.0479239
-0.0450287
-0.0348093
-0.0267421
-0.0478997
-0.0573787
-0.0464023
-0.0501653
-0.0536939
-0.0600401
0.501362
0.494851
0.496447
0.490407
0.489115
0.503306
0.507606
0.509609
0.515135
0.517378
0.507452
0.512891
0.516828
-0.0184296
-0.0418327
-0.0445076
-0.0398283
-0.0397076
-0.0374689
-0.0396537
0.126537
0.0582364
0.0616248
0.0141661
-0.119432
-0.0611303
0.495074
0.493294
0.481407
0.723863
0.573168
0.494327
0.591217
0.697019
0.279812
0.475428
0.31146
0.889963
0.787477
0.933485
0.54428
0.250277
0.417365
0.456208
0.272365
0.350286
0.324263
0.214197
0.244458
0.285004
0.382319
0.269557
0.247646
0.00414307
0.194839
0.304855
0.287021
0.409977
0.46972
0.271886
0.190998
0.145823
0.606585
0.625871
0.639157
0.611537
0.634295
0.583332
0.575221
0.590665
0.598893
0.592442
-0.736594
-0.442633
-1.39085
-0.718303
-0.260381
0.53873
0.514926
0.772649
0.642866
0.668144
0.652715
0.616108
0.587838
0.613634
0.633338
0.33846
0.449344
0.424136
0.430886
0.333743
0.263254
0.563087
0.56087
0.594094
0.61826
0.589462
0.620185
0.512811
0.512531
0.511996
0.508237
0.506502
0.508841
0.0588113
0.0261285
0.0677313
0.050146
0.02789
0.0160139
-0.0203895
-0.0308678
-0.0371438
-0.0354975
-0.0205772
-0.0168281
0.176632
0.112895
0.033133
0.0616856
0.000346318
-0.068134
-0.0880116
0.0189834
0.115374
0.10544
0.40803
0.65635
0.476633
0.643943
0.487231
0.542852
0.469516
0.460315
0.484563
0.382541
0.463147
0.261468
-0.24815
-0.158008
0.798548
0.808351
0.582356
0.411661
0.177516
0.3508
0.539546
0.468244
0.50303
0.571437
0.557753
0.0384401
0.0927103
0.389622
0.616296
0.246106
0.236727
0.230234
0.41768
0.334179
)
;

boundaryField
{
    wall-4
    {
        type            zeroGradient;
    }
    velocity-inlet-5
    {
        type            zeroGradient;
    }
    velocity-inlet-6
    {
        type            zeroGradient;
    }
    pressure-outlet-7
    {
        type            fixedValue;
        value           uniform 0;
    }
    wall-8
    {
        type            zeroGradient;
    }
    frontAndBackPlanes
    {
        type            empty;
    }
}


// ************************************************************************* //
