/*--------------------------------*- C++ -*----------------------------------*\
| =========                 |                                                 |
| \\      /  F ield         | OpenFOAM: The Open Source CFD Toolbox           |
|  \\    /   O peration     | Version:  2206                                  |
|   \\  /    A nd           | Website:  www.openfoam.com                      |
|    \\/     M anipulation  |                                                 |
\*---------------------------------------------------------------------------*/
FoamFile
{
    version     2.0;
    format      ascii;
    arch        "LSB;label=32;scalar=64";
    class       surfaceScalarField;
    location    "88";
    object      phi;
}
// * * * * * * * * * * * * * * * * * * * * * * * * * * * * * * * * * * * * * //

dimensions      [0 3 -1 0 0 0 0];

oriented        oriented;

internalField   nonuniform List<scalar> 
1300
(
3.75095
5.62643
-3.28524
3.75095
-7.75007
5.62643
-4.41038
4.41038
-0.336569
0.336569
1.87638
1.87457
-2.69357
2.69357
-2.02418
2.02418
-2.52159
2.52159
-5.24646
5.24646
-5.06864
5.06864
4.64945
-4.64945
-6.3157
6.3157
-0.936626
0.936626
-3.69242
3.69242
3.16958
-3.16958
-1.93339
1.93339
0.100182
-0.100182
-0.553467
4.30442
3.19749
3.19749
-2.00687
2.00687
-4.87044
4.87044
6.21806
-6.21806
5.2622
-5.2622
-1.97697
-2.49043
1.80069
-11.4629
-5.94938
-5.94938
-8.44038
8.44038
-2.81395
2.81248
2.94646
-2.94646
-1.76486
1.76486
-4.37474
-0.0356399
-4.37474
4.37849
0.031898
4.37849
-0.4494
0.112832
-0.4494
4.0174
-4.0174
0.228602
0.107967
0.228602
3.06541
-3.06541
-1.87712
3.75351
1.87383
-1.8719
6.17632
-1.87905
3.75362
-6.01306
6.01306
-2.93911
0.245542
-2.93911
2.48061
0.212958
2.48061
-6.85175
6.85175
-2.0831
0.0589227
-2.0831
1.97085
0.0533251
1.97085
2.8822
-2.8822
-2.62788
0.10628
-2.62788
2.39259
0.129006
2.39259
0.35351
5.27292
-5.97994
8.79242
-5.27292
0.0264643
5.20837
0.0380886
5.20837
-5.10591
0.0372689
-5.10591
5.01321
0.0554319
5.01321
4.73187
-0.0824244
4.73187
-4.76932
0.119872
-4.76932
-3.36667
-4.05855
-6.46708
0.151381
-6.46708
-1.02586
0.08923
-1.02586
0.824532
0.112094
0.824532
-3.6885
3.6885
-4.11532
0.422898
-4.11532
3.12396
0.0456186
3.12396
1.86849
1.88247
5.61944
-5.61944
2.44986
-1.89323
-0.0401625
-1.89323
-2.01852
-3.24369
2.01852
-0.085123
-0.135155
0.235337
-0.135155
3.15945
0.0380314
3.15945
2.2356
0.156987
-2.2356
0.228733
3.28119
-3.28119
1.33466
0.672207
1.33466
-5.56379
5.56379
4.95681
0.0563972
-4.95681
0.0863735
6.15616
0.0619025
6.15616
-6.19952
-0.0185408
-6.19952
2.52452
-5.01495
-2.65469
6.13248
0.183214
-6.13248
0.183107
2.91845
0.0280087
2.91845
-2.9179
2.9179
-2.98487
0.0384088
-2.98487
-2.16343
0.398571
-2.16343
1.467
0.297863
1.467
-4.27795
-0.0967925
-4.27795
-4.26676
0.151439
4.26676
0.111727
1.13086
-1.13086
-0.583837
0.134436
-0.583837
-4.14293
-0.135026
4.14293
-0.125522
-3.90443
-0.112972
-3.90443
-3.02464
0.0397664
3.02464
0.0407674
3.11291
0.0465408
-3.11291
0.0475082
-1.87081
3.75328
-1.88014
3.75397
-5.63389
-0.379165
-5.63389
6.32395
-0.310892
6.32395
3.33297
0.359451
-3.33297
0.393863
2.30893
0.171674
2.30893
-6.81254
-0.039207
-6.81254
6.83816
0.0135859
6.83816
2.1781
0.130839
-2.1781
0.0949959
1.92741
0.043446
1.92741
2.90294
-0.0207386
2.90294
-2.87604
-0.00616002
-2.87604
2.79013
-2.79013
2.71521
0.0749226
-2.71521
0.0873344
-11.1331
11.1145
-0.0352446
-11.0978
5.17312
5.17312
4.15648
0.575387
4.15648
-4.98822
0.218906
-4.98822
2.69269
-5.34737
3.10733
-6.474
4.66053
-16.1235
4.28343
-8.34199
6.70682
-6.70682
6.59601
0.110809
-6.59601
0.12893
-1.14437
0.11851
-1.14437
-3.08799
-0.600511
-3.08799
4.32887
-0.640376
4.32887
-3.02788
3.02788
-3.07736
0.0494743
3.07736
0.046599
1.89443
0.032979
-1.89443
0.00119741
0.160145
0.068457
-0.160145
0.0249904
3.49685
-0.215658
3.49685
-3.08154
-0.199647
-3.08154
-1.24433
0.0999642
1.24433
0.0903303
-5.81441
0.250626
-5.81441
-11.1908
0.092945
-11.1527
-6.10658
-6.10658
2.3338
11.1262
-2.89386
0.0178202
2.89386
0.0245896
2.9744
0.0534845
-2.9744
0.0565006
-2.85704
0.0669124
2.85704
0.0608551
-2.53811
0.374677
-2.53811
-1.06833
1.06833
-1.23159
0.163266
1.23159
0.235407
1.40513
-0.274268
1.40513
0.707141
0.117391
-0.707141
0.123304
-3.80129
-0.103139
-3.80129
6.55962
-0.235672
6.55962
-2.96556
-0.115976
2.96556
-0.0626202
-0.0333173
11.1479
-5.13981
0.0338961
5.13981
-11.2098
11.2436
-3.20786
0.669755
3.20786
0.948621
5.28259
0.281201
-5.28259
0.294363
6.7898
0.0483616
-6.7898
0.0829842
-2.59577
-0.492221
-2.59577
-5.053
-0.580891
5.053
-0.724126
-11.4749
-0.203183
11.6781
-11.4195
6.0176
0.138564
-6.0176
11.3822
-1.02879
-0.102073
1.02879
0.0395335
1.7336
-0.328468
1.7336
3.69615
-0.199306
-3.69615
-0.105142
-6.71452
-0.0980182
6.71452
-0.154904
-2.15083
-0.444932
2.15083
-0.417234
-4.26714
4.30517
1.90919
-2.3748
-2.64015
-5.61849
1.85184
1.90144
4.3017
-10.1229
-6.00054
-9.93981
7.26033
-6.96596
-9.23223
9.1498
7.91521
-8.02818
-5.78465
5.83125
6.483
-6.44223
1.87885
1.87466
8.03657
-7.79103
-15.5707
15.1916
7.57858
-7.51966
15.7245
-15.7637
-17.8062
17.8546
-5.70725
5.81353
-6.74096
6.7348
-6.9774
6.91478
-2.83154
-3.64246
13.0829
-12.9316
8.64015
-8.68031
-8.63812
9.06102
3.38261
0.922559
3.42915
-1.88213
3.76097
-1.87149
3.78068
2.75365
-5.58519
2.59372
-5.23387
4.39772
4.24243
-4.3126
-1.30589
-5.92501
5.95302
-5.81404
5.8749
9.16529
-9.20093
-1.88518
3.75984
-1.86879
3.77023
-3.42499
-2.35966
3.37937
0.922333
8.04947
5.03347
-8.23268
-1.70713
-8.05109
7.85178
-8.23588
8.03623
-0.432685
5.81942
-5.38673
4.43775
-1.56431
7.38373
5.69601
5.91492
5.86584
-5.58464
1.10013
-6.48686
-6.40048
-2.19833
2.33276
2.0924
-1.98443
6.16466
1.75054
6.03914
-5.7728
-2.25538
-5.87594
3.82037
2.01088
3.86985
4.07857
2.40443
4.11833
3.03039
-3.03602
0.00562887
-3.05672
6.08711
0.72382
-5.41638
-4.49405
4.98298
3.05359
5.19594
-5.56557
-2.22546
-5.17171
-9.51984
-6.0509
-10.1007
10.0619
5.12966
9.75103
-11.9303
11.7753
4.81193
2.76665
4.86525
-4.95882
-2.56084
-4.86382
11.6289
-2.64546
-8.98342
-10.2947
-7.51147
10.2812
5.44335
10.9373
6.91729
11.0203
4.41631
7.21257
-9.85967
2.3482
-3.86804
-1.83921
-3.78071
3.67595
2.13758
3.80496
-4.2177
-2.52326
-4.19988
-4.296
-2.6814
4.31674
2.41807
-4.41857
-3.8173
4.53455
2.38023
4.0395
-10.04
4.30248
-7.94494
-9.17465
-3.75691
-9.04572
3.55654
2.60882
-6.16535
-2.02865
8.56841
-4.32598
7.26252
-5.21365
-3.46667
-5.21245
-6.90098
-1.73715
-6.74954
-8.86065
8.36843
-9.15659
8.51621
12.4778
-5.62929
-6.84851
-3.96848
-2.47375
3.92097
-0.491825
-3.71045
3.71608
0.0505221
3.8312
4.75376
4.26194
-3.88495
-1.9291
-3.82844
3.82485
2.05005
3.89176
6.85655
2.30874
6.88845
-6.63333
-2.5676
-6.73012
9.01947
-8.6209
2.83108
-2.73111
5.40376
2.63247
-5.1881
-2.86299
6.20762
-3.21994
-2.98768
-12.2037
10.5219
1.68177
-4.81992
-0.382169
-0.482351
-5.48477
-3.74746
5.3649
0.550018
11.0719
7.32444
-5.51151
5.76214
6.16659
6.22298
-0.1775
5.79308
-5.12332
5.25829
-2.62229
-2.63599
5.4917
-5.62672
-1.23843
-5.54598
4.30755
0.412419
1.39822
-1.16288
-1.74609
-0.452235
-1.62279
1.18244
0.909956
1.2509
0.964399
1.36836
-2.94316
0.503235
2.43993
-1.97876
-1.48119
-3.86054
-1.13866
4.9992
5.74857
2.10321
-5.64343
-0.232514
2.50549
-2.3934
-0.813282
-3.04726
2.23607
-3.04935
-3.66316
-2.10182
5.76498
-3.36979
-0.458658
3.3163
0.553545
-3.82731
-2.0977
3.7889
0.329433
-3.12849
6.19103
-3.06254
-5.05758
2.52743
3.55969
4.5383
-4.78958
2.44784
2.34173
-1.22989
4.2497
0.946236
4.42138
-6.95793
4.73247
5.81694
3.24408
-6.17639
1.00468
-5.95325
8.5517
-7.3798
-1.1719
4.16934
4.38236
7.04277
5.43503
-5.66015
12.7029
-1.2098
-6.17001
7.16304
-3.91896
4.8579
-8.77686
-10.2929
4.12293
-9.1103
10.8842
-1.77393
-3.616
-8.31425
12.7263
-1.20111
-11.5252
8.54992
-4.29233
-4.41311
8.70544
-6.93779
6.97395
-1.99181
-4.98214
-10.0802
-5.68354
10.1782
1.59715
-9.94379
12.292
-2.73122
4.1231
0.742153
4.16655
3.306
-5.49158
2.18558
3.63179
-5.6236
2.07873
-7.57031
-6.71796
12.0498
-5.33187
-10.4749
-9.49608
-0.978794
2.5357
9.75629
-9.45299
7.41072
2.04227
3.30068
0.591082
-3.3756
-0.405111
0.233846
4.51297
-4.74681
4.0388
4.19579
3.26276
1.25021
3.84572
2.1073
-3.87031
-0.329568
-4.16435
1.48295
-1.74628
-3.69518
5.17812
-4.06757
0.372398
-2.74408
-3.49756
6.24164
-4.58328
3.03478
3.15625
5.08483
-4.91373
1.41617
-2.39276
-2.52097
2.6514
-4.39768
1.99511
3.18301
4.37534
0.558039
5.87514
6.17468
-8.48396
0.539015
11.2082
-9.50102
2.46037
8.5599
-9.87109
0.37501
-8.67071
1.0002
-5.32619
-5.16515
5.20816
-6.94531
-3.5687
6.22802
0.660427
-6.33975
-0.409789
-6.02282
-2.83783
-6.46775
-3.037
-6.11958
-8.69715
-1.64833
-7.04882
6.7201
-6.66857
-3.43216
7.39269
1.12352
-7.39628
7.29421
-7.47456
7.1461
0.0954827
3.6206
4.35742
1.88367
-2.39071
4.27438
-5.12911
7.43785
-8.74053
3.61142
4.21919
-6.78679
-4.52134
5.01012
4.00935
5.30798
8.86186
-10.3207
1.45888
-10.6221
11.9556
-1.33352
-16.3715
5.74936
-7.5096
2.43257
0.398509
2.55108
0.541044
2.49876
-3.03981
-2.19007
-2.09974
-2.44328
-3.46449
5.90777
1.08223
-3.53246
2.45023
-3.56771
4.64994
-0.22162
-3.31084
5.26563
-2.76687
5.66414
-3.78933
1.87481
3.44075
5.75413
-2.31338
4.39566
-1.76319
1.93182
-4.24519
-1.53267
-2.95478
5.09236
-3.28686
3.65926
-0.345548
4.00481
-4.04574
0.825796
-0.78298
3.41281
3.64154
4.31682
-3.06661
2.91606
-4.67925
-1.32914
-4.12121
-0.938198
-0.252217
-3.68951
3.94173
5.96154
-6.21376
-5.22539
9.50953
-4.28414
7.67854
-5.37244
-2.3061
-4.24156
-4.37934
3.86688
1.9262
9.60474
0.207521
-5.57996
-4.9158
-3.96718
3.09589
2.16239
-1.69476
3.37653
2.17711
-0.778894
0.432886
0.818011
1.77075
-1.33786
0.319881
1.45087
-0.843001
1.68916
0.816337
-1.80655
0.18376
-1.35373
3.5898
1.0862
-1.99616
0.658294
0.977781
-3.60007
5.0829
-2.6958
-2.38709
6.06068
1.14366
-3.83946
4.40232
-3.9899
2.40571
-3.54437
-1.43375
-5.42365
-3.6731
-2.51401
4.96424
-3.39376
5.49697
1.30108
-5.26446
6.56554
-3.73196
1.63014
-3.03971
3.85605
-0.917987
-2.12172
2.90189
2.86309
-3.09149
0.0442271
-0.1896
2.40314
-2.59274
-0.646214
-2.62498
-4.57373
4.90316
-2.10508
4.55293
2.16929
-1.91734
6.47027
1.80863
-3.72597
-3.24896
-3.70761
-1.38423
3.15407
-0.569204
-4.29462
-5.55135
4.16378
0.257596
-7.07484
7.89238
-0.817545
-4.02125
-0.711223
4.88057
-6.09266
0.469063
-4.01393
3.87845
4.82469
5.08228
-11.3045
-0.220703
-6.17484
1.11956
-7.2944
5.50192
-3.52669
7.64962
-10.2997
6.86758
-9.17623
6.47772
-0.816682
6.23658
-4.051
2.74684
-8.43038
-6.83323
5.56412
-2.79747
6.30627
-3.17675
9.48303
-5.90798
5.34248
4.14054
-1.02355
-4.1889
-5.3531
4.32956
-0.0106219
4.15592
4.98041
-2.87311
4.65084
2.27011
-4.66287
-2.12758
-6.49632
1.83346
-3.34007
-1.9214
3.75485
3.16343
3.75451
1.23388
-3.3494
7.2028
-8.18159
-1.87093
-3.29422
5.34609
-1.01653
3.44676
-6.74098
-1.87942
4.77579
-0.776299
-3.99949
0.853498
-4.4222
1.67685
-6.09905
5.26845
-5.67824
2.22112
-9.73072
-5.17516
-5.13562
-2.25696
-5.2176
-7.5517
5.29474
-1.80234
5.49187
-8.47988
7.70358
-3.47573
8.77046
-5.41837
-1.04938
5.8356
1.31049
10.081
0.228565
-4.74991
-1.92743
3.82816
-1.90073
1.16847
-3.46095
0.367214
2.50051
3.56016
-6.80807
0.0212779
-4.72863
-3.91059
7.91995
5.59894
11.5605
1.23974
9.09777
-1.17782
10.3375
4.13016
4.36557
-2.97736
4.43624
0.964372
4.57579
-0.92758
2.80239
1.6235
1.71273
0.680668
2.30394
1.3376
3.12974
0.0899339
-2.00981
4.6151
-8.58228
-0.964858
-8.0069
1.14291
5.7023
-4.55939
2.90861
-0.746213
1.00787
-0.145708
-1.15039
1.2961
-2.7817
-1.92929
-0.47842
-1.69576
2.35405
1.89403
-1.87563
-0.906069
0.350138
-4.02324
3.19423
-3.15001
-0.286917
6.27862
-2.8127
0.219964
-1.18256
-2.40501
-2.85725
2.67349
6.17638
0.293886
3.11384
5.19705
3.09934
0.226234
3.87978
-5.65371
-3.69053
-5.87441
-0.372488
4.50808
1.764
7.99229
5.90454
4.88801
-1.85297
-10.0346
6.50183
-2.06559
5.16831
-1.16882
-4.93024
5.05724
2.38061
-5.71766
0.0394197
-4.89082
-6.9564
-0.509757
8.21334
-9.5712
8.52182
5.68399
1.36483
-4.39454
-0.741084
4.23127
0.134296
10.4718
-1.1303
-6.69147
7.82177
-4.572
3.60714
0.727082
2.64945
2.02318
1.27697
-5.4145
-9.97389
-2.07533
-1.52474
-4.46243
0.536775
-2.43081
6.21117
-2.60403
3.90507
5.21775
6.22562
-2.12581
-4.08795
6.40995
-2.50488
3.72074
)
;

boundaryField
{
    wall-4
    {
        type            calculated;
        value           uniform 0;
    }
    velocity-inlet-5
    {
        type            calculated;
        value           uniform -3.75095;
    }
    velocity-inlet-6
    {
        type            calculated;
        value           uniform -5.62643;
    }
    pressure-outlet-7
    {
        type            calculated;
        value           nonuniform List<scalar> 8(3.28524 7.75007 4.46739 9.66224 7.42522 5.17921 5.80002 8.94396);
    }
    wall-8
    {
        type            calculated;
        value           uniform 0;
    }
    frontAndBackPlanes
    {
        type            empty;
        value           nonuniform List<scalar> 0();
    }
}


// ************************************************************************* //
