/*--------------------------------*- C++ -*----------------------------------*\
| =========                 |                                                 |
| \\      /  F ield         | OpenFOAM: The Open Source CFD Toolbox           |
|  \\    /   O peration     | Version:  2206                                  |
|   \\  /    A nd           | Website:  www.openfoam.com                      |
|    \\/     M anipulation  |                                                 |
\*---------------------------------------------------------------------------*/
FoamFile
{
    version     2.0;
    format      ascii;
    arch        "LSB;label=32;scalar=64";
    class       volVectorField;
    location    "88";
    object      U;
}
// * * * * * * * * * * * * * * * * * * * * * * * * * * * * * * * * * * * * * //

dimensions      [0 1 -1 0 0 0 0];

internalField   nonuniform List<vector> 
918
(
(0.98516 -0.000508479 0)
(0.00501773 2.96625 0)
(0.00790006 0.880474 0)
(0.979705 0.00214496 0)
(-0.0124563 2.06091 3.79269e-20)
(-0.00704981 2.9488 -2.4296e-18)
(0.823361 1.16967 4.51324e-19)
(0.101014 0.0749456 -1.44852e-20)
(0.999909 -0.000275317 0)
(0.0664146 0.740186 0)
(0.019521 0.479978 0)
(0.731785 0.00685121 0)
(0.0110941 2.93038 0)
(0.00289602 2.79486 0)
(-0.0179351 3.14577 7.82338e-19)
(-0.0211916 1.91867 1.25383e-20)
(0.286924 0.0613622 1.0201e-18)
(0.18965 1.14607 3.17043e-19)
(0.962709 0.00501382 0)
(0.0063441 0.417731 0)
(-0.00468069 0.0144509 -6.66908e-19)
(1.00197 -0.00497406 0)
(1.00023 -0.00978296 0)
(0.975741 -0.00643836 0)
(0.598105 0.0309623 0)
(0.0132009 2.64329 0)
(-0.0147824 2.90995 8.91437e-19)
(0.0137254 0.923465 0)
(-0.021254 1.18421 0)
(0.0160538 0.907832 0)
(-0.0159237 2.5851 0)
(-0.00142093 2.11512 -3.02905e-20)
(-0.0114376 1.89763 0)
(-0.0206069 2.98761 -8.72118e-23)
(-0.0166824 3.00529 1.88817e-18)
(0.0020999 3.00017 0)
(0.871482 -0.00965975 0)
(0.400315 0.928822 1.81802e-19)
(0.810302 1.18305 -5.16383e-19)
(0.961331 1.02998 5.62777e-19)
(0.677644 1.27488 -1.05171e-19)
(0.677264 1.24869 6.02217e-19)
(0.127862 0.120045 1.41933e-20)
(0.139186 0.0594391 0)
(1.16786 0.56698 0)
(0.0926033 0.087501 6.36141e-20)
(0.0667474 0.050663 -6.63545e-20)
(0.919932 -0.00745735 0)
(1.00027 0.000163014 0)
(0.999909 0.000339998 0)
(1.00363 -0.00775676 0)
(1.00096 -0.00091716 0)
(1.00017 3.85213e-05 0)
(0.0726703 1.82629 -7.70158e-19)
(0.0327934 0.945121 0)
(0.0988519 0.819041 0)
(0.0153183 0.892201 0)
(0.0409531 0.65883 0)
(0.00722505 2.01629 0)
(0.00285746 0.770764 0)
(0.01907 0.502692 0)
(-0.00183858 0.759101 0)
(0.0140303 0.457491 0)
(0.842232 -0.0156626 0)
(0.842394 0.0272159 0)
(0.75781 0.00381012 0)
(0.800831 0.0294656 0)
(0.700886 0.0189727 0)
(0.0146822 3.00041 9.00076e-19)
(0.0114902 3.00806 0)
(0.00610893 3.00274 0)
(0.0135363 2.99736 1.02036e-23)
(0.00796403 2.95848 -1.33773e-18)
(0.0144889 2.98203 0)
(0.0108613 2.90361 0)
(0.0246532 2.93081 2.03278e-24)
(0.00463945 2.82478 0)
(0.0302111 2.91644 0)
(-0.00527551 2.74611 0)
(0.303096 3.5362 0)
(-0.131482 3.61638 0)
(0.136639 3.23543 -7.28029e-19)
(-0.0139338 2.97515 0)
(-0.0285348 1.98718 0)
(-0.00724959 2.16993 -1.23664e-20)
(-0.0150609 1.92721 7.31969e-21)
(0.337349 0.137559 -3.54164e-19)
(0.317529 0.0368591 -3.44243e-19)
(0.291402 0.140211 -1.06087e-18)
(0.251378 0.066811 -6.89244e-19)
(0.229938 0.98643 0)
(0.273274 1.29602 -3.69091e-19)
(0.368181 1.2318 6.16077e-19)
(0.987421 0.00858128 0)
(0.941843 0.0057984 0)
(1.0003 0.000581807 0)
(1.00286 0.0093105 0)
(1.00301 0.00847518 -2.75436e-18)
(0.991906 0.00969418 2.07998e-18)
(-0.0140155 0.750508 0)
(0.0107848 0.424141 0)
(-0.0558292 1.00783 0)
(-0.0333167 0.802203 0)
(0.000976783 0.424019 0)
(-0.0957049 0.0834598 2.07063e-19)
(0.0386776 0.0585752 0)
(0.993556 -0.00836825 0)
(0.954476 -0.00653439 0)
(0.743528 0.0299119 0)
(0.67811 0.0285369 0)
(0.660636 0.0261371 0)
(0.973034 -0.00704882 0)
(0.585722 0.0739984 0)
(0.457894 -0.00177197 1.54579e-18)
(-0.0374176 2.86165 6.52208e-19)
(0.0413327 2.91001 0)
(0.0533259 2.88632 0)
(-0.00458129 2.70126 0)
(-0.013438 2.98511 8.4299e-19)
(-0.0177894 2.89492 0)
(-0.0154158 2.98808 -2.61618e-18)
(-0.0133102 2.92516 8.95853e-19)
(-0.0377135 1.35367 0)
(-0.00832422 1.38519 0)
(-0.00751952 2.13454 5.93376e-22)
(-0.00655894 2.0959 0)
(-0.023497 1.90567 0)
(0.938716 -0.00735046 0)
(0.857686 -0.00996999 0)
(0.862622 0.00555736 0)
(0.949681 -0.00778292 0)
(0.884149 -0.00820142 0)
(0.511283 1.12141 -2.29422e-19)
(0.560546 1.17245 0)
(0.365194 0.873759 3.37835e-20)
(0.308301 0.732647 0)
(0.923889 1.06574 -1.55449e-19)
(1.04354 0.875509 3.17849e-19)
(0.361065 1.35866 0)
(0.529503 1.33032 0)
(0.550687 1.26884 0)
(0.121618 0.184584 -3.03897e-19)
(0.160627 0.115277 0)
(0.172901 0.100013 1.89659e-19)
(1.01415 0.929684 0)
(1.08859 0.782957 0)
(1.114 0.724698 -2.54073e-19)
(1.1472 0.626495 0)
(1.1971 0.409273 5.79226e-20)
(0.957816 -0.00867952 0)
(0.962547 -0.0100191 0)
(0.901813 -0.00798876 0)
(0.984213 -0.00913914 0)
(0.974729 -0.00932085 0)
(0.937156 -0.00637513 0)
(1.00019 0.00234129 0)
(1.0009 0.00141811 0)
(0.999909 0.000856176 0)
(0.0355197 2.07178 4.26863e-19)
(0.11841 1.7694 0)
(0.0181788 2.18517 6.55689e-19)
(0.0458946 1.88054 -5.4599e-19)
(0.10708 1.15014 -2.59619e-19)
(0.0497993 1.02722 0)
(0.143917 0.984355 0)
(0.0089748 0.8457 0)
(0.0210084 0.592876 0)
(-0.000781841 2.24149 -7.739e-22)
(0.016227 2.01998 0)
(-0.00169186 2.24441 -2.53837e-20)
(0.00862576 2.02626 3.74017e-20)
(0.00544497 0.81638 0)
(0.00410324 0.791286 0)
(0.0164352 0.541308 0)
(-0.00694561 0.751 0)
(0.00648573 0.439852 0)
(0.938927 0.00988403 0)
(0.851086 -0.0146045 0)
(0.927958 0.000506087 0)
(0.842941 -0.0128707 0)
(0.809413 0.0010608 0)
(0.899295 0.0207762 0)
(0.87531 0.0243681 0)
(0.783212 0.00118358 0)
(0.00575803 3.06499 -8.36822e-21)
(0.0166779 3.05759 0)
(0.0146821 2.96901 0)
(0.00874726 2.87624 0)
(0.917447 3.94603 0)
(1.23001 3.27997 9.22035e-19)
(0.068656 3.06751 0)
(-0.0295448 2.90082 0)
(-0.0119942 1.4084 0)
(-0.0342473 1.70207 0)
(-0.0207886 1.5401 0)
(-0.0316009 2.54468 -9.41434e-21)
(-0.016462 2.23948 0)
(-0.0219571 2.38526 0)
(-0.000890018 1.95441 8.3123e-22)
(-0.0037202 2.24104 -1.167e-20)
(-0.00560603 2.20516 -7.62911e-21)
(-0.00882287 1.93908 0)
(0.387422 0.121145 5.41569e-19)
(0.367044 0.0228534 -5.31428e-19)
(0.258181 1.58486 0)
(0.278385 0.759653 -3.1615e-19)
(0.176751 1.67222 -1.04741e-18)
(0.225536 1.22173 1.04966e-18)
(0.90191 0.00618045 0)
(0.967323 0.011224 0)
(0.974509 0.0108404 0)
(0.92325 0.00631758 0)
(-0.0097752 0.745897 0)
(-0.0113572 0.74376 0)
(0.00855119 0.424602 0)
(0.0795828 0.0649413 5.86869e-19)
(0.0759192 0.0373637 -6.88519e-19)
(0.0401847 0.0418822 0)
(1.10233 0.0872637 2.71082e-20)
(1.0843 0.0400768 0)
(1.01538 0.0404939 0)
(0.908796 -0.00496055 0)
(0.440173 0.103542 0)
(0.499551 0.087162 -2.47089e-18)
(0.410699 0.0167088 9.24435e-19)
(0.00855065 2.98111 7.03839e-19)
(-0.0322233 2.86533 4.75226e-20)
(0.00357364 3.05033 -1.77336e-20)
(0.0202253 3.04327 6.30273e-19)
(-0.0149909 2.99659 2.94361e-20)
(-0.0129195 2.94945 -1.18465e-22)
(-0.0172585 3.01193 -5.45344e-19)
(0.0148803 3.02374 3.95118e-19)
(0.00740806 3.03688 -6.25037e-19)
(0.934263 -0.00114197 0)
(0.93965 -0.0031455 0)
(0.846266 -0.00945637 0)
(0.956369 0.012109 0)
(0.942363 0.013562 0)
(0.881313 0.00560926 0)
(0.916297 0.0174363 0)
(0.925399 0.0154469 0)
(0.837165 0.00277427 0)
(0.713599 1.39812 3.62932e-20)
(0.746976 1.50666 0)
(0.179136 0.31088 7.06914e-20)
(0.230095 0.668357 5.68055e-19)
(0.261697 0.717396 -3.31994e-19)
(0.261011 0.514985 6.61157e-19)
(0.347461 0.813224 1.59892e-18)
(0.14144 0.231038 3.77256e-19)
(0.249508 0.142088 7.29155e-19)
(0.211346 0.132262 1.8881e-19)
(0.213824 0.0795889 3.57508e-19)
(1.18599 0.467458 6.72485e-20)
(1.20044 0.258907 6.21316e-20)
(0.0103949 2.23391 2.51888e-19)
(0.0402963 1.9489 0)
(0.971957 0.0296838 0)
(0.944154 0.0140855 0)
(0.870237 -0.0177141 0)
(0.0113404 3.07414 0)
(0.0196729 2.94419 1.1515e-18)
(0.0163824 2.95628 0)
(0.00645832 2.85052 -1.14207e-18)
(0.00643399 3.0917 2.79182e-19)
(0.00701004 3.08245 0)
(0.779668 1.80751 -1.56973e-19)
(1.23784 2.48176 3.97284e-19)
(0.761578 1.94667 -1.21984e-18)
(0.0192906 2.98005 -6.04155e-19)
(0.0346865 2.99789 0)
(-0.0350587 2.87536 0)
(-0.00386736 2.22426 -1.32047e-20)
(-0.00316891 2.24532 1.96208e-20)
(0.00187433 1.98892 -7.30266e-21)
(0.278306 1.39468 1.02563e-18)
(0.240378 0.555832 -7.03126e-19)
(0.0636753 1.99678 7.60876e-19)
(0.13491 1.88304 -9.08873e-19)
(0.17999 1.51271 9.53625e-20)
(0.00559022 3.11797 -1.55197e-18)
(0.0131964 3.11861 1.68892e-18)
(-0.00940748 2.98045 7.75509e-19)
(-0.00401848 2.97705 -7.31943e-19)
(-0.021378 2.88068 -7.89842e-19)
(0.00844012 3.09875 -2.07166e-18)
(0.0016418 3.1065 2.07363e-18)
(0.283502 0.69555 0)
(0.249198 0.683813 -1.18396e-18)
(0.095625 0.224185 5.25587e-19)
(0.358634 0.940912 1.11664e-18)
(0.196505 0.277524 -1.72173e-18)
(1.19047 0.176524 6.25194e-20)
(1.20073 0.313935 0)
(1.17885 0.123772 -5.34291e-21)
(0.00169488 2.25285 -1.43306e-21)
(0.00509039 2.24404 0)
(0.0247164 1.98493 0)
(0.33972 1.30373 -3.68077e-19)
(0.375454 1.15275 -8.01333e-19)
(0.211265 0.380191 1.42963e-18)
(1.00588 -0.0108219 0)
(1.00767 -0.00762984 5.08089e-19)
(-0.0319831 1.33488 0)
(-0.0444715 1.33677 0)
(1.00221 0.00351741 1.81307e-21)
(1.00366 0.00947424 1.0375e-18)
(-0.0200698 2.52974 1.19324e-20)
(-0.0249797 2.57234 0)
(0.033418 3.17606 3.96038e-19)
(0.387815 3.48029 0)
(1.17942 0.668807 -5.5879e-20)
(1.01282 0.0131522 -2.13075e-21)
(1.02137 -0.01026 0)
(1.0017 0.00013764 8.09952e-23)
(0.112993 1.373 0)
(0.143201 2.56387 0)
(0.0358383 1.31528 0)
(0.000645685 2.61577 2.52531e-20)
(-0.0206028 2.57319 -7.78483e-22)
(0.999595 0.0311484 2.51204e-21)
(1.06335 0.00494727 0)
(1.09803 0.0256237 0)
(-0.0324441 1.74562 0)
(-0.0187948 2.5741 0)
(-0.00671788 1.32495 0)
(0.3118 1.48613 -1.67244e-19)
(1.01131 -0.00960624 0)
(1.0094 -0.0149135 0)
(1.00237 0.000763599 6.49376e-19)
(1.00547 -0.00479281 -7.63198e-19)
(1.00118 -0.000964109 0)
(-0.0198459 1.47577 0)
(-0.00807702 1.38931 0)
(-0.0118182 1.43371 0)
(-0.0114711 1.31146 0)
(-0.0257694 1.299 0)
(-0.014725 1.28392 0)
(1.03511 -0.0059982 0)
(1.01975 0.0161085 -9.31161e-22)
(0.825442 1.27857 2.62478e-19)
(1.00223 0.00033008 -6.46774e-19)
(1.00406 0.00526732 7.57325e-19)
(1.00118 0.0020803 0)
(1.01269 0.0103975 6.43857e-19)
(1.00797 0.0083217 -7.8013e-19)
(1.00855 0.0146822 0)
(-0.0241966 2.60136 0)
(-0.0265761 2.58029 -2.25224e-20)
(-0.0236593 2.59468 1.59339e-20)
(1.24 0.270419 5.80245e-19)
(1.16404 0.0879679 0)
(0.038793 3.07872 -8.89451e-19)
(0.0647671 2.85744 -6.47033e-20)
(0.136916 3.19185 1.35963e-18)
(0.132449 3.21892 -1.89384e-19)
(0.132198 3.22894 0)
(0.0184387 3.13701 2.29532e-19)
(0.0730404 3.15994 8.77077e-19)
(0.0662401 3.18445 -4.3284e-19)
(0.0210528 3.13009 0)
(0.549325 0.280784 0)
(0.482712 0.299773 0)
(1.15203 0.705266 1.25531e-19)
(1.14478 0.826943 -1.07465e-19)
(1.20732 0.591698 0)
(1.2344 0.525029 0)
(1.01599 0.0134085 -1.20006e-18)
(1.01493 0.0142841 1.50669e-18)
(1.02543 -0.00978089 0)
(1.02349 -0.0118304 0)
(1.00643 0.00266804 0)
(1.01042 0.00377578 0)
(1.00458 0.00188072 0)
(1.00977 0.00627865 0)
(1.0078 0.00597204 0)
(1.0045 0.00474043 0)
(0.101649 1.37165 0)
(0.0986798 1.33328 0)
(0.132235 1.40826 0)
(0.150173 1.41247 0)
(0.145322 2.58904 0)
(0.184739 2.65979 -4.22365e-19)
(0.101666 2.64397 0)
(0.0853761 2.64706 1.9747e-19)
(0.0392122 2.67028 -1.4572e-19)
(0.0229376 1.33295 0)
(0.0333255 1.24828 0)
(0.0251483 1.34333 0)
(0.0467953 1.26953 0)
(0.00486549 1.98086 6.65139e-21)
(-0.0195358 2.60091 -2.43179e-20)
(-0.00730869 2.65703 9.07648e-21)
(-0.0172081 2.67697 0)
(-0.0226317 2.60662 7.05338e-21)
(-0.022687 2.60166 2.05603e-20)
(0.0135746 1.97882 -1.40301e-21)
(-0.00707045 2.38708 3.2623e-20)
(-0.0124133 2.41039 -1.02943e-20)
(1.01187 0.0400178 1.21468e-18)
(1.0054 0.0211947 -1.51227e-18)
(1.00406 0.0472401 -1.23754e-18)
(0.978748 0.0379303 1.55736e-18)
(1.06455 0.00873684 0)
(1.04963 -0.00810545 0)
(1.09515 0.0356551 0)
(1.07474 0.0133205 0)
(1.07255 0.0011003 0)
(1.14109 0.0847912 0)
(1.11265 0.0454897 0)
(1.11689 0.0331439 0)
(-0.0271883 2.42437 1.81949e-21)
(-0.0169323 2.01435 0)
(-0.0194065 2.21306 0)
(-0.020703 2.59466 -1.39852e-20)
(-0.0176768 2.60488 3.06993e-22)
(0.00123084 1.58868 -4.39733e-20)
(-0.0104326 1.51611 4.48378e-20)
(-0.0190929 1.40486 0)
(-0.023188 1.41201 0)
(-0.0308052 1.40627 0)
(-0.00289352 1.32673 0)
(0.0146839 1.24316 0)
(0.388172 1.50361 2.71856e-19)
(0.431605 1.50415 1.44787e-19)
(0.596759 2.43951 -2.40789e-19)
(0.397048 2.53715 7.07992e-19)
(0.348354 2.0465 7.23746e-20)
(1.0211 -0.00808501 0)
(1.01552 -0.00972808 0)
(1.01493 -0.0154954 0)
(1.00741 -0.00104384 0)
(1.00493 -0.000898139 0)
(1.00779 -0.0046671 0)
(1.00928 -0.00357718 0)
(1.01424 -0.00433652 0)
(1.02047 0.0166467 1.17581e-18)
(1.01751 0.0157965 -1.50638e-18)
(1.02079 0.0189509 -1.18524e-18)
(1.01816 0.0175179 1.48534e-18)
(0.788694 1.32883 0)
(0.723743 1.38029 2.47278e-19)
(0.901885 1.22896 9.95435e-20)
(0.947644 1.17477 -1.32479e-19)
(1.15163 2.59365 2.8701e-19)
(0.763711 0.123676 6.01915e-19)
(1.16465 0.110933 0)
(1.21448 0.196965 -4.67156e-19)
(1.2021 0.157111 -1.99266e-20)
(1.0057 0.159225 0)
(0.125449 2.95954 5.17672e-19)
(0.101283 2.86524 -1.12684e-18)
(0.00670076 2.37848 7.49978e-19)
(0.109926 -0.183913 -3.02583e-19)
(0.333059 3.4109 -2.18433e-19)
(0.189407 3.30674 0)
(0.233305 3.34613 2.8448e-19)
(0.236149 3.03101 -1.73953e-18)
(0.328348 3.18799 0)
(0.0055665 3.121 4.5033e-20)
(0.0165419 3.12947 -5.29497e-19)
(0.0142219 3.12559 7.79311e-19)
(0.0337297 3.13973 0)
(0.0319692 3.15002 0)
(1.2059 2.59038 0)
(0.550887 0.796079 -5.26838e-19)
(1.0713 0.999615 -1.13409e-20)
(1.00718 1.08365 0)
(0.860883 0.978243 -1.09232e-19)
(1.09854 0.900412 2.78537e-20)
(0.264424 0.303577 -8.05083e-19)
(0.637091 0.326221 -1.56784e-20)
(0.520816 0.219607 4.06097e-19)
(0.502454 0.336842 2.89225e-20)
(0.384255 0.261355 -1.15785e-18)
(0.5885 0.326667 0)
(0.706689 0.433676 6.61525e-19)
(0.703736 0.43395 0)
(0.545786 0.341786 0)
(0.45367 0.237822 0)
(0.833661 0.632642 4.06361e-19)
(1.24146 0.292912 -4.87886e-19)
(1.24227 0.432887 0)
(1.2503 0.372871 0)
(0.669513 0.195466 6.22675e-19)
(0.877737 0.563732 -3.7062e-19)
(0.777287 0.542069 6.61901e-19)
(0.963428 0.453543 -7.33304e-19)
(1.0192 0.0150662 8.07946e-19)
(1.01751 0.0144117 -8.11582e-19)
(1.01577 0.0154441 0)
(1.03659 -0.00553704 0)
(1.02998 -0.00832708 -7.60102e-19)
(1.02803 -0.0119257 7.5255e-19)
(1.02491 0.0107186 0)
(1.02339 0.0144934 0)
(1.01142 0.00420591 0)
(1.01417 0.00922467 0)
(1.01518 0.00423847 0)
(1.01429 0.00294586 0)
(0.0725859 1.35502 0)
(0.0801392 1.29962 0)
(0.14911 1.38999 6.65112e-21)
(0.282524 1.48453 8.89392e-20)
(0.177512 1.45519 1.86981e-19)
(0.209863 1.4604 -3.04887e-19)
(0.177922 1.41576 0)
(0.136461 1.59971 -7.22745e-20)
(0.120443 1.57965 0)
(0.3441 1.99503 -1.05246e-19)
(0.34069 2.33261 6.14217e-19)
(0.19676 1.46719 6.30011e-20)
(0.269916 1.40174 2.26763e-20)
(0.203222 1.39467 -1.83102e-20)
(0.279968 1.34447 -1.06489e-19)
(0.243152 1.57815 0)
(0.269899 1.61459 1.14789e-19)
(0.0312459 2.25357 -2.88773e-20)
(0.0441625 2.65927 0)
(0.0668716 2.38977 1.36337e-19)
(0.0636335 2.41035 0)
(0.0699223 2.66066 -2.18842e-19)
(0.0496195 2.68958 0)
(0.03074 1.4518 3.74864e-20)
(0.0369438 1.49819 0)
(0.0350506 1.41626 0)
(0.0308342 1.42284 -4.23033e-20)
(0.00144148 2.64318 -1.65162e-20)
(0.0302736 2.68864 1.63313e-19)
(0.0110926 2.71401 1.1429e-21)
(0.00685844 1.84046 -9.99526e-21)
(-0.000299574 1.69462 -5.31192e-21)
(0.01957 1.30934 0)
(0.030432 1.22336 0)
(0.0461894 1.59706 -2.91629e-20)
(0.0359555 1.47782 -3.52151e-20)
(0.0396945 1.54047 4.40126e-20)
(0.0412644 1.62037 0)
(-0.030364 2.26607 1.09166e-19)
(-0.0313679 2.54158 -4.54983e-20)
(-0.017015 2.44007 5.53496e-21)
(-0.000932312 1.8558 1.21123e-20)
(-0.0256939 2.49228 5.06418e-21)
(-0.0198642 2.43678 -9.11886e-21)
(1.01895 0.0223479 -8.05895e-19)
(1.01554 0.0287248 8.09017e-19)
(1.01282 0.0183836 0)
(1.00904 0.0715172 1.13405e-18)
(0.99164 0.0620045 -1.26578e-18)
(0.95092 0.0561743 1.41532e-18)
(1.01263 0.112044 -1.50909e-19)
(1.04304 -0.00550278 0)
(1.0515 -0.00105765 7.24767e-19)
(1.03935 -0.00966839 -7.26256e-19)
(1.07234 0.0433706 -4.31083e-20)
(1.06523 0.0244728 3.71746e-19)
(1.0631 0.0577086 0)
(1.05417 0.0511121 -1.33751e-19)
(1.03215 0.0424256 0)
(1.02664 0.0385857 0)
(1.02792 0.0138957 0)
(1.02394 0.0166735 0)
(1.04022 0.0333245 2.75446e-19)
(1.03892 0.0271895 -6.08942e-19)
(1.05147 0.0349783 -2.91885e-19)
(1.04836 0.0350782 -3.21513e-19)
(1.07176 0.0660988 6.27447e-19)
(1.0974 0.0538841 0)
(1.10696 0.0983493 0)
(-0.0261534 2.27067 6.08082e-20)
(-0.0264813 2.02001 1.69944e-21)
(-0.0224721 2.02746 0)
(-0.0274798 2.43874 -6.05198e-20)
(-0.0232817 2.39521 -3.43952e-21)
(-0.033926 2.46516 6.55435e-21)
(-0.0203478 2.61416 -1.80553e-20)
(-0.0234096 2.55569 5.58222e-22)
(-0.0219175 2.50779 -5.38454e-21)
(-0.0157428 2.60791 1.38245e-20)
(-0.0206112 2.61 -1.52931e-20)
(-0.00730112 1.51699 -1.01147e-21)
(0.00175636 1.63543 -4.31872e-20)
(0.37331 1.45247 -1.14349e-19)
(0.37337 1.38504 4.06476e-20)
(0.664481 1.43002 -2.39172e-19)
(0.53055 1.49689 -1.42105e-19)
(0.588528 1.46299 0)
(0.592477 2.41666 2.0731e-19)
(0.661096 2.4128 3.37943e-19)
(0.410585 2.50593 8.82383e-20)
(0.401875 2.52978 -6.0901e-19)
(0.509433 2.47015 6.15478e-19)
(0.552583 2.45332 0)
(0.486975 2.51143 -5.59389e-19)
(0.247927 2.58344 1.14137e-18)
(0.354224 2.55536 -7.68217e-20)
(0.283345 2.64517 -1.58474e-18)
(0.947848 2.36921 7.31452e-19)
(0.83761 2.37502 0)
(1.01109 0.000561106 2.63442e-20)
(1.01538 -0.00533437 -2.13677e-20)
(1.0177 -0.00343102 -3.90264e-19)
(1.01507 -0.000793595 3.92397e-19)
(1.01249 0.00131026 0)
(0.651958 1.29373 0)
(0.67623 1.1875 0)
(0.790704 1.10719 0)
(0.669389 1.15082 0)
(1.18192 2.60707 6.0317e-20)
(1.06969 2.35419 0)
(0.831433 2.15572 3.92302e-21)
(0.822239 2.42267 0)
(0.920573 2.51712 -4.26902e-19)
(0.955652 2.47334 2.83932e-19)
(0.795594 0.184184 0)
(0.736077 0.156983 1.63249e-19)
(0.905306 0.153349 9.51485e-19)
(0.821332 0.156076 -3.55762e-19)
(0.774525 0.0903933 -1.10033e-18)
(1.08313 0.244251 -8.94422e-19)
(0.999597 0.308679 -1.80574e-20)
(0.926582 0.312833 8.61111e-19)
(1.00662 0.237866 7.23867e-19)
(0.947175 0.201891 -1.25856e-18)
(0.90817 0.206245 1.57449e-19)
(0.946597 0.273758 -3.3392e-19)
(0.924425 0.232563 0)
(0.995628 0.19848 6.20571e-19)
(1.04716 0.19694 0)
(1.04503 0.225648 0)
(1.1082 0.122908 2.90769e-19)
(1.07226 0.183171 -1.52158e-20)
(1.07652 0.244199 -1.58196e-19)
(1.10196 0.209836 0)
(1.02095 0.0468743 6.21325e-19)
(1.04021 0.0600594 7.75268e-19)
(1.03369 0.0453385 -6.17462e-19)
(1.04245 0.068063 -5.20171e-19)
(1.0171 0.0763856 -7.99017e-19)
(0.983703 0.161563 0)
(0.988833 0.106645 0)
(0.965956 0.0771418 -5.03543e-19)
(0.903831 0.0981728 2.00446e-19)
(1.04035 0.109058 7.18537e-19)
(1.06956 0.126278 -8.38713e-19)
(1.07684 0.158937 7.48957e-19)
(1.03199 0.153717 0)
(1.07509 0.113555 0)
(1.05403 0.0942737 -3.4379e-19)
(1.04455 0.100007 -5.86251e-19)
(0.578278 1.0485 1.43374e-19)
(0.600879 1.37029 -4.52873e-20)
(1.15201 2.72324 -2.3309e-19)
(1.21729 3.06576 3.46564e-21)
(1.24327 2.70579 -1.30991e-19)
(1.2711 2.68851 -2.73804e-20)
(1.19765 2.32821 -1.13786e-20)
(1.20505 2.96943 -9.89084e-20)
(1.22555 2.93504 2.42695e-19)
(1.20707 3.218 -1.40043e-19)
(1.36596 2.94798 1.93428e-19)
(1.35363 2.86575 0)
(0.573147 0.806323 -5.08887e-20)
(0.0956835 1.21225 5.63475e-19)
(0.567103 0.314654 5.30731e-19)
(0.401543 0.058827 5.68259e-19)
(0.440034 0.308255 6.57064e-19)
(0.54202 0.426024 -1.06993e-18)
(0.546149 0.419698 8.7574e-19)
(0.4421 0.280807 -3.30619e-19)
(0.2852 0.207597 7.41384e-19)
(0.699321 0.271676 -3.60124e-19)
(0.653607 0.293898 0)
(0.582917 0.208468 6.18802e-21)
(0.743265 0.516785 3.58276e-19)
(0.726633 0.488539 -1.30219e-18)
(0.622183 0.450189 8.80455e-21)
(0.611578 0.439846 0)
(0.699843 0.719891 3.95935e-19)
(0.862038 0.784414 3.91913e-19)
(0.7868 0.867644 -4.58738e-19)
(0.907692 0.821769 -1.52813e-19)
(0.938916 0.86701 -3.67387e-20)
(0.945915 0.866725 3.76226e-20)
(0.872846 0.667244 -6.73382e-19)
(0.95259 0.719401 1.41879e-19)
(1.01301 0.734072 0)
(1.0036 0.710291 -1.91605e-19)
(1.02966 0.349632 2.11712e-19)
(1.15142 0.30975 2.87464e-19)
(1.07121 0.282036 3.65533e-19)
(1.02048 0.382656 -4.30763e-19)
(1.06979 0.444953 0)
(1.12634 0.424832 0)
(0.920702 0.386319 1.29374e-21)
(0.835267 0.320354 0)
(0.885998 0.319693 4.06723e-19)
(0.909823 0.321026 -8.42082e-21)
(0.958647 0.457368 2.04229e-18)
(0.920617 0.513391 5.23946e-19)
(0.924325 0.479941 -5.59594e-19)
(0.837542 0.468495 6.01299e-19)
(0.821414 0.463781 3.60684e-19)
(0.789945 0.446865 -3.54005e-19)
(1.02745 -0.000133367 6.50181e-19)
(1.02006 0.000156894 0)
(1.01858 0.0010814 4.23957e-19)
(1.02181 -0.00144327 -9.60395e-19)
(1.0224 0.00462973 4.66559e-19)
(1.02033 0.0116856 -9.77024e-19)
(1.02122 0.0110815 0)
(1.02043 0.0113287 -2.03639e-19)
(1.01594 0.00794085 5.10863e-19)
(1.01657 0.0107561 -2.54968e-19)
(1.01729 0.0101136 1.87703e-19)
(0.0364167 1.33139 0)
(0.0434276 1.38756 0)
(0.0529786 1.33154 0)
(0.0604684 1.27689 0)
(0.0760811 1.40472 -4.67836e-20)
(0.0865097 1.37032 2.10731e-20)
(0.11448 1.54952 -1.53353e-20)
(0.108391 1.39318 -4.01269e-21)
(0.0413482 1.48291 2.02027e-20)
(0.0450061 1.4766 -1.55467e-20)
(0.0690078 1.39222 -1.11278e-20)
(0.0616328 1.39294 4.54948e-20)
(0.0560683 1.37003 6.79837e-21)
(0.0465506 1.39394 3.92705e-21)
(0.107571 2.357 -1.50633e-19)
(0.0962852 2.40607 0)
(0.169336 2.03102 1.09311e-19)
(0.114934 1.70227 4.04774e-20)
(0.234909 2.02902 -9.03895e-20)
(0.198808 2.41895 0)
(0.261629 2.36882 -6.08729e-19)
(0.301877 2.3665 4.29872e-19)
(0.228567 1.98851 -2.51929e-19)
(0.155021 2.14694 1.70653e-19)
(0.141341 2.25288 0)
(0.0192421 1.87654 8.20115e-21)
(0.00157715 2.38173 -2.88093e-20)
(0.00689683 2.1398 0)
(0.0120696 2.44606 -1.36784e-20)
(0.0298083 2.28859 7.68757e-21)
(0.0193025 1.43109 -8.25802e-21)
(0.0174622 1.41312 1.3979e-19)
(0.0157525 1.42186 -4.61333e-20)
(0.0242632 1.42771 -3.89357e-20)
(0.0287726 1.45573 0)
(0.0112134 1.40596 0)
(0.00480875 1.30989 -6.3778e-20)
(0.00689017 1.40029 1.85185e-20)
(0.0131701 1.39755 0)
(0.0134699 1.29977 -4.70647e-20)
(0.0263318 1.21437 9.61219e-20)
(1.04085 0.0121496 0)
(1.04711 0.0084348 -6.80199e-20)
(1.03893 0.0227314 -4.90619e-19)
(1.0486 0.0213983 0)
(1.05245 0.0211819 0)
(1.03656 0.0124296 -6.81114e-21)
(1.03124 0.0122803 7.8857e-19)
(1.03179 0.0173186 9.56353e-19)
(1.0256 0.0212754 0)
(1.02255 0.021874 0)
(1.03541 0.0263306 4.89482e-19)
(1.02589 0.0280953 0)
(1.02408 0.0276856 0)
(-0.0176333 2.02333 0)
(-0.00100228 1.66445 -4.16975e-21)
(-0.00507646 1.76765 -3.26058e-20)
(-0.00214973 1.40731 0)
(-0.00549762 1.57053 -2.47541e-20)
(-0.0113084 1.48377 1.51902e-20)
(-0.00970709 1.42418 0)
(0.387649 1.6334 0)
(0.376261 1.31073 -7.95595e-20)
(0.300129 1.33955 0)
(0.427456 1.30931 1.57483e-20)
(0.479121 1.47454 0)
(0.459193 1.41857 2.1537e-20)
(1.03575 2.66914 -1.54638e-20)
(0.968019 2.39751 -9.19135e-19)
(0.921316 2.18679 1.0284e-18)
(0.851732 2.36677 2.43097e-19)
(0.847016 2.478 0)
(0.916668 2.47414 0)
(0.931206 2.36266 0)
(0.91016 2.35249 -9.49415e-19)
(0.685414 2.44101 -3.98045e-19)
(0.798878 2.43037 -9.85595e-20)
(0.809042 2.40452 7.48427e-20)
(0.694809 2.38562 0)
(0.800145 2.3808 0)
(0.758133 2.39455 -3.69756e-19)
(0.766427 2.46777 0)
(0.637841 1.09495 0)
(0.479358 0.89202 -5.25127e-19)
(0.574933 0.941811 -3.31555e-20)
(0.518089 1.02682 0)
(0.518536 0.967025 7.85128e-19)
(0.80709 0.889624 -1.29685e-19)
(0.814868 1.02465 0)
(0.790499 0.991718 1.84881e-19)
(0.675307 1.03556 0)
(0.67602 0.938073 0)
(1.1616 2.74641 -2.33099e-19)
(1.13895 2.80994 -1.00777e-19)
(0.926604 2.32235 1.06946e-19)
(0.894701 2.30219 -8.49585e-20)
(1.12747 2.71926 0)
(1.08159 2.68855 1.02191e-19)
(1.0867 2.47206 -3.15075e-19)
(0.981222 2.22574 -3.0014e-20)
(0.489939 1.32231 0)
(0.506537 1.05565 -1.26337e-19)
(0.580341 1.16854 0)
(0.84874 0.251597 0)
(0.755743 0.200852 0)
(0.661953 0.154498 0)
(0.839668 0.252607 -6.32816e-19)
(0.725653 0.245747 3.74975e-19)
(0.922123 0.0914135 -4.13042e-19)
(0.924424 0.133466 0)
(0.912658 0.14238 1.7849e-19)
(0.848728 0.11824 7.1362e-19)
(0.812532 0.0791615 -4.47148e-19)
(1.15144 3.34256 -7.11197e-19)
(1.20111 3.2623 0)
(1.14875 3.37196 -1.48155e-18)
(0.637607 3.53407 1.25541e-18)
(0.857383 3.10418 6.70151e-20)
(0.525245 0.781784 6.09801e-19)
(0.420734 0.779335 0)
(0.29444 0.336888 -1.47456e-19)
(0.485076 0.649654 8.54784e-19)
(0.576893 0.325293 -1.89084e-19)
(0.517869 0.462069 2.27035e-19)
(0.675093 0.518349 4.82343e-19)
(0.72265 0.560346 0)
(0.67245 0.57087 0)
(0.640392 0.528129 0)
(1.01282 0.62073 8.72001e-20)
(0.92624 0.562598 -5.10309e-19)
(0.952219 0.593678 3.83917e-19)
(0.980838 0.533667 -3.95889e-19)
(1.09011 0.499957 0)
(1.099 0.591708 -9.59775e-20)
(0.856221 0.419458 -8.31017e-19)
(0.854031 0.407218 -1.0302e-18)
(0.783804 0.401656 6.30762e-19)
(0.793067 0.38982 -6.41551e-19)
(0.841925 0.345368 -5.20727e-19)
(0.787269 0.341296 6.36452e-19)
(1.02678 0.00620419 -4.96904e-19)
(1.02648 0.00643864 1.01163e-18)
(1.02957 0.000338954 6.30072e-19)
(1.03376 0.00123569 -7.58905e-19)
(1.03396 0.00938194 0)
(1.03023 0.0100652 -1.23462e-18)
(0.0642862 1.63828 1.88734e-20)
(0.0528658 1.59108 0)
(0.0914866 1.68737 1.27556e-19)
(0.0987964 1.66856 -1.13035e-19)
(0.0926935 1.55055 2.74265e-20)
(0.0919603 1.55229 0)
(0.0139995 1.69682 0)
(-0.00195441 1.51435 1.11736e-20)
(-0.000156099 1.46104 -1.00444e-20)
(-0.00733399 1.5672 5.50109e-21)
(0.00296679 1.88752 1.64259e-20)
(-0.00899398 1.94086 -4.09663e-21)
(0.496475 1.35186 -2.84344e-19)
(0.49028 1.35089 3.12578e-19)
(0.455341 1.30487 -3.61591e-20)
(0.436867 1.28049 8.08164e-21)
(0.64408 1.31225 0)
(0.55822 1.40299 1.02334e-19)
(0.574781 1.4099 -9.96291e-20)
(0.469756 1.29812 3.53213e-20)
(0.525449 1.24404 0)
(0.576712 1.20604 0)
(0.652473 2.40083 5.84711e-19)
(0.668277 2.44297 1.26257e-18)
(0.712578 2.45379 -8.70066e-19)
(0.608586 2.42771 -2.0215e-19)
(0.559243 2.51715 2.84903e-19)
(0.508633 2.49241 -7.59358e-19)
(0.977288 2.36928 -5.75726e-19)
(1.01059 2.38116 0)
(0.924621 2.16483 -6.59316e-19)
(1.05288 2.66751 0)
(1.05524 2.65407 0)
(0.59146 2.24947 -1.39491e-19)
(1.03296 3.1491 1.18134e-19)
(0.904226 3.01998 -1.9758e-20)
(0.255017 0.81889 0)
(0.277359 0.657125 -3.18715e-19)
(0.452038 0.61945 -3.22321e-19)
(0.371817 1.99279 0)
(0.458111 2.77588 -4.66538e-20)
(0.410177 2.53809 0)
(0.726411 0.670312 -8.35461e-19)
(0.809541 0.69315 1.11254e-18)
(0.829143 0.633654 -1.09886e-18)
(0.702647 0.635964 -1.06547e-19)
(0.756316 0.596203 -4.356e-19)
(0.997793 2.74647 -8.98545e-20)
(1.04036 2.8104 -1.73223e-19)
(0.626534 2.10802 7.24697e-19)
(0.578045 1.67766 -5.15454e-19)
(0.690467 1.88112 -4.16694e-19)
(0.98439 2.43104 -1.13333e-19)
(0.992123 2.42432 3.03778e-19)
(0.643019 1.81203 2.8939e-20)
(0.436168 1.3003 1.47487e-19)
)
;

boundaryField
{
    wall-4
    {
        type            noSlip;
    }
    velocity-inlet-5
    {
        type            fixedValue;
        value           uniform (1 0 0);
    }
    velocity-inlet-6
    {
        type            fixedValue;
        value           uniform (0 3 0);
    }
    pressure-outlet-7
    {
        type            zeroGradient;
    }
    wall-8
    {
        type            noSlip;
    }
    frontAndBackPlanes
    {
        type            empty;
    }
}


// ************************************************************************* //
