/*--------------------------------*- C++ -*----------------------------------*\
| =========                 |                                                 |
| \\      /  F ield         | OpenFOAM: The Open Source CFD Toolbox           |
|  \\    /   O peration     | Version:  2206                                  |
|   \\  /    A nd           | Website:  www.openfoam.com                      |
|    \\/     M anipulation  |                                                 |
\*---------------------------------------------------------------------------*/
FoamFile
{
    version     2.0;
    format      ascii;
    arch        "LSB;label=32;scalar=64";
    class       volScalarField;
    location    "81";
    object      p;
}
// * * * * * * * * * * * * * * * * * * * * * * * * * * * * * * * * * * * * * //

dimensions      [0 2 -2 0 0 0 0];

internalField   nonuniform List<scalar> 
918
(
0.557289
1.17238
0.00117136
0.556756
-0.0126427
1.13937
-0.514018
0.650425
0.537499
-0.107476
-0.0584515
0.539553
0.999982
0.765158
-1.12497
-0.0134483
0.651576
-0.383142
0.536627
-0.0685145
0.675382
0.54403
0.547053
0.53763
0.596932
0.738611
0.880847
0.0290173
0.0115503
0.00679681
-0.0121733
-0.0390348
-0.0335861
1.02304
1.07409
1.09678
0.505205
0.333847
-0.379794
-0.453609
-0.439541
-0.539672
0.652089
0.65389
-0.217866
0.65161
0.649763
0.524499
0.536869
0.537783
0.538791
0.537782
0.539159
0.401831
-0.108535
-0.139827
-0.0885362
-0.0814105
0.0483159
-0.0576149
-0.0582165
-0.0574586
-0.0591155
0.454254
0.534048
0.530697
0.54379
0.553054
1.11192
1.08388
1.11001
1.02356
1.0401
0.978004
0.950611
0.786465
0.808063
0.74932
0.737286
-1.55392
-2.50044
-0.537775
-0.288665
-0.0106714
-0.0117856
-0.00649182
0.64895
0.650032
0.651487
0.653283
1.07785
-0.380404
-0.482512
0.536772
0.535582
0.543891
0.544593
0.540614
0.539704
-0.060408
-0.058097
-0.0562499
-0.0633632
-0.0606483
0.65045
0.655982
0.538156
0.535157
0.560693
0.581364
0.571061
0.276824
0.607808
0.623886
0.57303
0.733948
0.726005
0.735742
0.854466
0.817479
0.918086
0.941387
0.0184221
-0.00026917
-0.0176944
-0.0209121
-0.0200958
0.50103
0.493563
0.521429
0.508646
0.511158
0.251027
0.118238
0.418545
0.443155
-0.299536
-0.367719
-0.43185
-0.461919
-0.569443
0.613551
0.654322
0.651486
-0.227048
-0.155289
-0.289848
-0.0819958
-0.145313
0.514743
0.521772
0.516762
0.532339
0.5268
0.528766
0.541147
0.538215
0.539775
0.463914
0.587358
0.328075
0.292388
-0.244056
-0.155314
-0.243263
-0.071259
-0.0686673
0.0626334
0.0884982
0.0349241
0.0230468
-0.0643672
-0.0600084
-0.0621804
-0.0584001
-0.0584228
0.446961
0.435673
0.466972
0.474549
0.520697
0.522116
0.526575
0.524576
0.901545
0.923853
0.931332
0.905176
-3.48473
-6.25693
0.0341922
0.169767
-0.00677616
-0.00961191
0.00195834
-0.00623923
-0.000205171
-0.00220801
-0.0123001
-0.013479
-0.00794135
-0.00687906
0.643683
0.644381
1.00066
1.00844
0.975583
0.928678
0.525048
0.527086
0.532559
0.528456
-0.0583957
-0.0576401
-0.0575439
0.650386
0.651043
0.651018
0.23808
0.147772
0.32815
0.357493
0.637096
0.626321
0.635396
0.63267
0.667858
0.948759
0.966861
0.965229
0.973501
1.01761
1.03407
0.999278
0.48041
0.490428
0.485356
0.524258
0.522175
0.523009
0.519487
0.520465
0.518661
-0.0316875
-0.410143
0.490315
0.506539
0.492754
0.494425
0.693695
0.772375
0.652701
0.653258
0.653304
-0.0119937
-0.0705567
0.247393
0.213007
0.386161
0.42278
0.401614
0.872606
0.833111
0.883144
0.856601
0.818018
0.843932
-0.361759
-1.85564
-0.977849
0.516363
0.332395
0.418607
0.00475585
-0.0119647
-0.00741903
1.00116
1.0727
0.643129
0.818499
0.820677
0.705021
0.735506
0.790474
0.716044
0.750934
0.785845
0.767687
0.569251
0.503465
0.520041
0.841214
0.896698
0.117067
0.0544777
0.0107684
0.10768
0.165515
0.139281
1.03246
0.950011
1.01981
0.53492
0.535645
-0.00662836
-0.0199715
0.539909
0.539966
-0.0137129
-0.00329493
0.402164
-0.832381
0.094528
0.528524
0.51835
0.535516
-0.0934078
0.353219
-0.0582291
0.0439583
-0.0134864
0.529684
0.46541
0.424397
-0.001738
-0.0229061
-0.0590818
-0.213893
0.532589
0.530894
0.534984
0.535919
0.536604
-0.0207954
-0.0166666
-0.0112708
-0.0544244
-0.0453027
-0.0596725
0.499371
0.518598
-0.172407
0.535134
0.537272
0.537089
0.530376
0.535991
0.534251
-0.0132975
-0.017626
-0.0202517
0.217666
0.350968
0.639374
0.723617
0.612853
0.389887
0.156462
0.543926
0.606504
0.513229
0.665431
0.648979
0.647327
0.159936
0.00916981
0.169405
0.111304
0.526389
0.525139
0.5166
0.513553
0.530384
0.528497
0.53306
0.530092
0.533043
0.534419
-0.0500153
-0.0761282
-0.0857079
-0.152462
0.307974
0.568852
0.252868
0.282119
0.138705
-0.0529585
-0.0544976
-0.0555658
-0.0618211
-0.00295636
-0.0292982
0.0383794
0.038343
0.00957955
-0.0160297
-0.0134497
-0.0246267
-0.0182851
0.522927
0.522929
0.527823
0.53649
0.475106
0.478889
0.443593
0.464446
0.449608
0.388014
0.423676
0.398755
-0.00757241
0.00029875
-0.00416779
-0.0213673
-0.0181419
-0.0372235
-0.0341237
-0.030114
-0.0257032
-0.0323807
-0.052902
-0.0578823
-0.17172
-0.287794
0.98727
0.906909
0.138295
0.521727
0.528193
0.524948
0.529893
0.533023
0.533814
0.531516
0.528059
0.518889
0.520548
0.517085
0.518037
-0.103114
-0.245514
-0.0738029
-0.149533
0.146271
0.628314
0.362864
0.297708
0.293242
0.523024
0.910052
0.691462
0.655712
0.64406
-0.346392
0.0400023
-0.283899
0.329575
0.15885
0.639589
0.688391
0.710167
0.65818
0.611525
-0.0984532
0.555757
-0.0778621
-0.0248912
0.177609
0.0517
0.644162
0.637828
0.644866
0.63977
0.649441
0.640571
0.6206
0.622414
0.638638
0.645784
0.479232
0.248294
0.198478
0.160021
0.643435
0.512814
0.561253
0.487969
0.521664
0.524242
0.522903
0.504208
0.511805
0.50732
0.513884
0.517471
0.526098
0.526588
0.521823
0.523956
-0.0564318
-0.0619806
-0.0267094
-0.136178
-0.129007
-0.191188
-0.0606216
0.0745667
0.0359462
0.23652
0.3399
0.0514858
-0.0576335
-0.0304943
0.0126632
0.179478
0.208147
0.0722956
0.159127
0.151609
0.132147
0.235207
0.23807
-0.0336188
-0.034714
-0.0391226
-0.0427376
0.0151319
0.0868643
0.0961256
-0.0132125
-0.0177989
-0.0528124
-0.0558488
-0.0248625
-0.0298674
-0.0254705
0.00255283
-0.0553331
-0.0234472
-0.00989342
-0.0121835
-0.0110356
-0.0164955
0.517868
0.519516
0.51983
0.528736
0.54086
0.555527
0.521257
0.497378
0.488137
0.491141
0.464061
0.474361
0.470229
0.483814
0.505136
0.513577
0.511931
0.514727
0.49714
0.498853
0.48534
0.489007
0.464127
0.444652
0.432586
-0.0452443
-0.00689575
-0.0152963
-0.040461
-0.0108343
-0.0226867
-0.0157101
0.00406258
-0.0132804
-0.0138009
-0.0242276
-0.0308204
-0.0301288
-0.0735163
0.0136666
-0.185967
-0.22073
-0.294405
0.889708
1.01397
0.80829
0.581135
0.602278
0.845713
0.929618
0.541059
0.733926
0.75682
0.588169
0.855309
0.526583
0.526174
0.523774
0.52325
0.524474
-0.00711875
0.100099
0.0962333
0.161225
0.278008
0.389138
0.321671
0.196085
0.32557
0.327811
0.620845
0.632853
0.588892
0.613064
0.613891
0.42465
0.50036
0.551984
0.513133
0.565673
0.587533
0.541052
0.574629
0.523388
0.478524
0.474635
0.424331
0.443862
0.41934
0.402523
0.517109
0.493687
0.504689
0.49479
0.516886
0.543343
0.540367
0.562827
0.57786
0.497687
0.452771
0.462052
0.492273
0.453912
0.469415
0.485174
0.234805
0.137479
0.220309
-0.0637855
0.00474716
-0.00703728
-0.0561509
-0.00355111
0.280354
-0.409126
-0.386362
-1.0116
0.506252
0.949281
0.567699
0.5476
0.650317
0.639584
0.645289
0.661715
0.654776
0.632169
0.639999
0.6452
0.589186
0.610047
0.626145
0.622539
0.523369
0.378641
0.379035
0.325772
0.195983
0.2364
0.431671
0.356157
0.281433
0.281511
0.455825
0.34182
0.412592
0.445071
0.375991
0.33066
0.534278
0.600573
0.593805
0.567407
0.476312
0.487808
0.512729
0.546246
0.569445
0.603812
0.513309
0.519271
0.520502
0.517972
0.51523
0.518332
0.518592
0.521192
0.521795
0.524826
0.523902
-0.0536706
-0.0403479
-0.0505713
-0.0617967
-0.0187237
-0.0213632
0.0219172
0.00954113
-0.0175396
-0.0129815
-0.0338512
-0.0378622
-0.0351256
-0.0279036
0.101683
0.114169
0.0986926
0.0590867
0.250476
0.379856
0.454389
0.32922
0.223869
0.247794
0.266144
-0.0149812
0.00979675
-0.00285781
0.0370728
0.0296151
-0.0437614
-0.048014
-0.0442869
-0.0355996
-0.0272922
-0.046063
-0.0539097
-0.0438858
-0.0484468
-0.0528961
-0.0578488
0.499663
0.493156
0.494725
0.488706
0.487419
0.501591
0.505899
0.507884
0.513359
0.515646
0.505744
0.511119
0.515063
-0.0168253
-0.0396874
-0.0427647
-0.0374275
-0.0372873
-0.0348058
-0.0366958
0.123996
0.0555273
0.0590028
0.0116816
-0.121521
-0.0633122
0.492912
0.491579
0.480214
0.721792
0.570968
0.492172
0.589315
0.694972
0.277119
0.47317
0.308831
0.888219
0.78547
0.931583
0.54223
0.247533
0.414001
0.454234
0.269136
0.346246
0.323059
0.212492
0.242927
0.282881
0.380942
0.267297
0.244895
0.00117201
0.192083
0.302908
0.284921
0.408606
0.468758
0.268939
0.18839
0.14327
0.605383
0.624688
0.638109
0.610413
0.632899
0.581641
0.573637
0.589018
0.597172
0.590868
-0.740308
-0.446471
-1.39416
-0.719911
-0.262757
0.536855
0.511614
0.770462
0.642911
0.670478
0.654731
0.616544
0.587725
0.613845
0.633998
0.337167
0.447958
0.422812
0.429402
0.332257
0.261909
0.561224
0.559055
0.591946
0.615882
0.587665
0.618219
0.511111
0.51083
0.510295
0.506539
0.504802
0.507139
0.0571475
0.0244988
0.0659442
0.0484532
0.0261634
0.0142112
-0.018645
-0.0289437
-0.0352598
-0.0335788
-0.018895
-0.0153962
0.173714
0.110274
0.0306183
0.0591697
-0.00185046
-0.0703693
-0.0900359
0.0165012
0.11279
0.102987
0.405725
0.654481
0.474624
0.642056
0.485103
0.540802
0.468406
0.459405
0.483941
0.380715
0.461181
0.25714
-0.252183
-0.161721
0.796869
0.806627
0.581462
0.409502
0.175891
0.350045
0.538321
0.467217
0.502271
0.570994
0.557372
0.0348281
0.0901843
0.383904
0.610618
0.243552
0.234393
0.227738
0.414291
0.331175
)
;

boundaryField
{
    wall-4
    {
        type            zeroGradient;
    }
    velocity-inlet-5
    {
        type            zeroGradient;
    }
    velocity-inlet-6
    {
        type            zeroGradient;
    }
    pressure-outlet-7
    {
        type            fixedValue;
        value           uniform 0;
    }
    wall-8
    {
        type            zeroGradient;
    }
    frontAndBackPlanes
    {
        type            empty;
    }
}


// ************************************************************************* //
