/*--------------------------------*- C++ -*----------------------------------*\
| =========                 |                                                 |
| \\      /  F ield         | OpenFOAM: The Open Source CFD Toolbox           |
|  \\    /   O peration     | Version:  2206                                  |
|   \\  /    A nd           | Website:  www.openfoam.com                      |
|    \\/     M anipulation  |                                                 |
\*---------------------------------------------------------------------------*/
FoamFile
{
    version     2.0;
    format      ascii;
    arch        "LSB;label=32;scalar=64";
    class       surfaceScalarField;
    location    "81";
    object      phi;
}
// * * * * * * * * * * * * * * * * * * * * * * * * * * * * * * * * * * * * * //

dimensions      [0 3 -1 0 0 0 0];

oriented        oriented;

internalField   nonuniform List<scalar> 
1300
(
3.75095
5.62643
-3.30603
3.75095
-7.75641
5.62643
-4.40272
4.40272
-0.327677
0.327677
1.87639
1.87457
-2.69007
2.69007
-2.02679
2.02679
-2.52194
2.52194
-5.24641
5.24641
-5.06946
5.06946
4.6508
-4.6508
-6.31288
6.31288
-0.937891
0.937891
-3.68811
3.68811
3.16958
-3.16958
-1.98603
1.98603
0.0894735
-0.0894735
-0.553468
4.30442
3.19749
3.19749
-2.00873
2.00873
-4.86956
4.86956
6.21796
-6.21796
5.28754
-5.28754
-1.9815
-2.48126
1.80567
-11.4731
-5.95074
-5.95074
-8.44037
8.44037
-2.81394
2.81249
2.94643
-2.94643
-1.76878
1.76878
-4.36693
-0.035793
-4.36693
4.37115
0.0315689
4.37115
-0.442099
0.114421
-0.442099
4.01182
-4.01182
0.21995
0.107727
0.21995
3.0654
-3.0654
-1.87712
3.75351
1.87383
-1.8719
6.17632
-1.87905
3.75362
-6.0146
6.0146
-2.93508
0.24501
-2.93508
2.47907
0.211003
2.47907
-6.85064
6.85064
-2.08165
0.0548662
-2.08165
1.98073
0.0460539
1.98073
2.88207
-2.88207
-2.62775
0.105807
-2.62775
2.3933
0.128636
2.3933
0.353505
5.27293
-5.97993
8.79243
-5.27293
0.0265119
5.20828
0.0381312
5.20828
-5.10613
0.0366709
-5.10613
5.01316
0.0562966
5.01316
4.73467
-0.0838641
4.73467
-4.7702
0.1194
-4.7702
-3.36843
-4.05065
-6.46307
0.150183
-6.46307
-1.02816
0.0902643
-1.02816
0.824785
0.113106
0.824785
-3.68804
3.68804
-4.10971
0.421599
-4.10971
3.12397
0.0456181
3.12397
1.86849
1.88247
5.61944
-5.61944
2.44986
-1.9424
-0.0436303
-1.9424
-2.06984
-3.2177
2.06984
-0.0838096
-0.134602
0.224075
-0.134602
3.15945
0.0380328
3.15945
2.23606
0.157243
-2.23606
0.227336
3.28026
-3.28026
1.33584
0.672891
1.33584
-5.56344
5.56344
4.95704
0.0561176
-4.95704
0.0874846
6.1567
0.0612606
6.1567
-6.19957
-0.0183897
-6.19957
2.52639
-5.00765
-2.6419
6.1316
0.181285
-6.1316
0.180858
2.91841
0.0280231
2.91841
-2.91836
2.91836
-2.98485
0.0384203
-2.98485
-2.16713
0.398353
-2.16713
1.47081
0.297969
1.47081
-4.27029
-0.0966332
-4.27029
-4.25965
0.149936
4.25965
0.111502
1.13136
-1.13136
-0.574674
0.132575
-0.574674
-4.13615
-0.134143
4.13615
-0.124331
-3.89984
-0.111983
-3.89984
-3.02462
0.0397706
3.02462
0.0407763
3.11291
0.0465419
-3.11291
0.0475124
-1.87081
3.75328
-1.88014
3.75397
-5.63515
-0.379443
-5.63515
6.3255
-0.310901
6.3255
3.3289
0.359215
-3.3289
0.393819
2.30938
0.169689
2.30938
-6.8125
-0.038135
-6.8125
6.83587
0.0147641
6.83587
2.1776
0.131776
-2.1776
0.09595
1.94764
0.0330926
1.94764
2.90257
-0.0204935
2.90257
-2.87596
-0.0061144
-2.87596
2.79074
-2.79074
2.71538
0.0753571
-2.71538
0.0876375
-11.133
11.1146
-0.0351134
-11.0979
5.17317
5.17317
4.16064
0.574023
4.16064
-4.98962
0.219416
-4.98962
2.69218
-5.33408
3.09574
-6.46417
4.65732
-16.1305
4.28804
-8.33869
6.70253
-6.70253
6.59157
0.11096
-6.59157
0.128499
-1.14696
0.118808
-1.14696
-3.08693
-0.601108
-3.08693
4.32914
-0.641099
4.32914
-3.02802
3.02802
-3.0774
0.0493817
3.0774
0.0465613
1.93014
0.0175027
-1.93014
-0.0122632
0.156702
0.0632478
-0.156702
0.0221003
3.49531
-0.215053
3.49531
-3.0809
-0.199357
-3.0809
-1.24585
0.0988903
1.24585
0.0899809
-5.81296
0.24952
-5.81296
-11.1909
0.0929796
-11.1527
-6.10659
-6.10659
2.33378
11.1262
-2.8938
0.0178445
2.8938
0.0246055
2.97471
0.0533105
-2.97471
0.0563548
-2.85763
0.066884
2.85763
0.0607311
-2.54157
0.374434
-2.54157
-1.07106
1.07106
-1.23516
0.164096
1.23516
0.235655
1.40466
-0.273307
1.40466
0.705462
0.119322
-0.705462
0.130789
-3.79778
-0.10206
-3.79778
6.56095
-0.235451
6.56095
-2.96511
-0.11579
2.96511
-0.0625461
-0.0333368
11.1479
-5.13983
0.0337052
5.13983
-11.2092
11.2429
-3.21162
0.670056
3.21162
0.94902
5.28388
0.279567
-5.28388
0.294258
6.7864
0.0494771
-6.7864
0.0838702
-2.59465
-0.492283
-2.59465
-5.05383
-0.581323
5.05383
-0.724693
-11.4738
-0.205761
11.6796
-11.4175
6.01872
0.137972
-6.01872
11.3809
-1.03048
-0.100878
1.03048
0.0405814
1.73267
-0.328003
1.73267
3.69374
-0.19843
-3.69374
-0.104036
-6.71537
-0.0971364
6.71537
-0.154419
-2.14977
-0.444878
2.14977
-0.417102
-4.26713
4.30516
1.90919
-2.37963
-2.62802
-5.59733
1.85184
1.90144
4.3017
-10.1247
-6.00578
-9.94383
7.26117
-6.96691
-9.23622
9.15236
7.90919
-8.02118
-5.78471
5.83127
6.48298
-6.4422
1.87884
1.87467
8.02902
-7.78401
-15.5822
15.2028
7.57416
-7.5193
15.7353
-15.7735
-17.8138
17.8633
-5.70831
5.81412
-6.74085
6.73474
-6.97714
6.91459
-2.83381
-3.63036
13.0843
-12.9341
8.61472
-8.65835
-8.62812
9.04972
3.38261
0.922558
3.42915
-1.88213
3.76097
-1.87149
3.78068
2.74231
-5.57612
2.59177
-5.21979
4.3829
4.23182
-4.29909
-1.29824
-5.92497
5.95299
-5.81353
5.87427
9.15389
-9.18968
-1.88518
3.75985
-1.8688
3.77023
-3.425
-2.35971
3.37938
0.922318
8.05222
5.03204
-8.23351
-1.71032
-8.04872
7.85029
-8.23505
8.0357
-0.432866
5.81824
-5.38538
4.43669
-1.56426
7.3825
5.69691
5.91632
5.86578
-5.58621
1.10113
-6.48651
-6.39902
-2.21427
2.34685
2.12315
-2.01542
6.15798
1.75121
6.03365
-5.76994
-2.25124
-5.872
3.82047
2.0108
3.86985
4.07855
2.40443
4.11832
3.0304
-3.036
0.00559704
-3.05669
6.08709
0.723846
-5.4164
-4.49408
4.98
3.04902
5.191
-5.56029
-2.22372
-5.16647
-9.52626
-6.05599
-10.1076
10.069
5.13382
9.75808
-11.9384
11.784
4.81548
2.75868
4.86153
-4.95715
-2.56215
-4.8612
11.6337
-2.64242
-8.9913
-10.3003
-7.51355
10.2855
5.44982
10.9405
6.9228
11.0244
4.41718
7.21654
-9.867
2.35345
-3.86838
-1.83993
-3.78075
3.67612
2.138
3.80475
-4.21765
-2.5232
-4.19981
-4.29598
-2.68116
4.31647
2.41827
-4.4183
-3.81675
4.53409
2.3805
4.03362
-10.0394
4.30508
-7.93544
-9.17607
-3.758
-9.04757
3.54558
2.607
-6.15258
-2.03054
8.54856
-4.31674
7.25033
-5.20062
-3.45773
-5.21289
-6.89201
-1.73611
-6.74207
-8.86761
8.37533
-9.16328
8.52219
12.4913
-5.63399
-6.85733
-3.96847
-2.47373
3.92096
-0.491814
-3.71045
3.71605
0.0505144
3.83119
4.75375
4.26194
-3.88464
-1.9289
-3.82828
3.82432
2.04995
3.8912
6.84813
2.30576
6.8797
-6.62575
-2.56393
-6.72238
9.02735
-8.62899
2.83088
-2.73199
5.40257
2.63313
-5.18752
-2.8612
6.20817
-3.2199
-2.98827
-12.1999
10.5233
1.67668
-4.81743
-0.380734
-0.470207
-5.48609
-3.75013
5.36669
0.549632
11.0729
7.32275
-5.51211
5.76163
6.16749
6.2236
-0.175419
5.79836
-5.1283
5.25417
-2.61907
-2.6351
5.48621
-5.62036
-1.23617
-5.5386
4.30243
0.413294
1.42823
-1.20416
-1.75605
-0.458226
-1.62526
1.21739
0.90576
1.28064
0.962701
1.38415
-2.95375
0.516855
2.43689
-1.99105
-1.49857
-3.84946
-1.14219
4.99165
5.74606
2.10422
-5.64202
-0.229972
2.50883
-2.39572
-0.802591
-3.04687
2.24483
-3.04742
-3.66566
-2.09605
5.76172
-3.36968
-0.458599
3.31637
0.553477
-3.82728
-2.09768
3.78886
0.329454
-3.12868
6.19129
-3.06261
-5.05758
2.52747
3.55962
4.53827
-4.78953
2.4478
2.34173
-1.22991
4.24668
0.944315
4.41637
-6.94868
4.72496
5.81009
3.23962
-6.16931
1.00284
-5.94584
8.5507
-7.37733
-1.17336
4.16844
4.38225
7.05016
5.44116
-5.66559
12.7157
-1.2071
-6.17023
7.15294
-3.91332
4.85396
-8.76728
-10.2951
4.12489
-9.11858
10.893
-1.77444
-3.61812
-8.32026
12.7367
-1.20238
-11.5343
8.55571
-4.28952
-4.4032
8.69272
-6.93194
6.96535
-1.99138
-4.97397
-10.0873
-5.68615
10.1844
1.59952
-9.93602
12.2895
-2.71948
4.12941
0.732125
4.1625
3.30528
-5.4902
2.18492
3.62666
-5.61803
2.07871
-7.56891
-6.71718
12.0461
-5.32895
-10.4752
-9.49839
-0.976787
2.53268
9.75679
-9.45548
7.41064
2.04484
3.30014
0.591068
-3.37549
-0.405253
0.234156
4.51433
-4.74849
4.03891
4.19615
3.26436
1.24997
3.84567
2.10732
-3.87028
-0.32953
-4.16437
1.48321
-1.7461
-3.69483
5.17804
-4.06763
0.372795
-2.74382
-3.49721
6.24103
-4.58375
3.03511
3.15618
5.08505
-4.91331
1.4161
-2.39279
-2.52052
2.65152
-4.39763
1.99472
3.18332
4.37522
0.558467
5.87111
6.17502
-8.47811
0.542669
11.2071
-9.49673
2.46245
8.56192
-9.87309
0.374694
-8.67288
0.996695
-5.31344
-5.15588
5.2014
-6.9375
-3.56589
6.22073
0.65897
-6.33223
-0.409846
-6.02779
-2.83983
-6.47266
-3.03912
-6.12417
-8.7047
-1.65006
-7.05465
6.72527
-6.67299
-3.43459
7.39769
1.1245
-7.4024
7.30153
-7.48073
7.15273
0.0954586
3.62059
4.3574
1.88367
-2.39068
4.27435
-5.12376
7.42952
-8.73085
3.60709
4.21369
-6.77763
-4.51716
5.01542
4.01192
5.31339
8.86952
-10.3295
1.46
-10.6333
11.9669
-1.33355
-16.3868
5.75348
-7.51728
2.43293
0.397947
2.55174
0.541327
2.49883
-3.04016
-2.19066
-2.10068
-2.44261
-3.46491
5.90752
1.08476
-3.53273
2.44796
-3.5676
4.65236
-0.221021
-3.3117
5.26654
-2.7677
5.66448
-3.78862
1.87586
3.44047
5.75431
-2.31384
4.39553
-1.7624
1.93057
-4.24442
-1.53433
-2.95588
5.09388
-3.28515
3.65794
-0.345392
4.00333
-4.0467
0.826801
-0.782338
3.41382
3.64115
4.31653
-3.06656
2.91616
-4.67856
-1.32826
-4.12009
-0.936771
-0.25267
-3.69354
3.94621
5.96795
-6.22062
-5.22769
9.5156
-4.28791
7.68389
-5.37534
-2.30855
-4.24573
-4.38326
3.8713
1.92706
9.61095
0.208315
-5.58366
-4.91999
-3.97097
3.09472
2.15945
-1.7128
3.38948
2.18301
-0.75478
0.426464
0.854175
1.7775
-1.35103
0.327882
1.44961
-0.876275
1.69032
0.818511
-1.80964
0.184383
-1.34057
3.5854
1.09632
-2.00208
0.651048
0.973533
-3.5926
5.07625
-2.69604
-2.38021
6.04978
1.14062
-3.83666
4.39798
-3.98469
2.40121
-3.5434
-1.43545
-5.42014
-3.66893
-2.51595
4.96391
-3.39157
5.49579
1.29825
-5.26582
6.56407
-3.73086
1.63481
-3.04364
3.86215
-0.921498
-2.12215
2.9025
2.85921
-3.08715
0.040284
-0.18465
2.4067
-2.59135
-0.640718
-2.63177
-4.57365
4.90311
-2.10513
4.55293
2.16922
-1.9173
6.47023
1.80864
-3.72594
-3.24894
-3.70754
-1.38421
3.15407
-0.569624
-4.29157
-5.5436
4.1598
0.256578
-7.06478
7.88202
-0.817246
-4.01576
-0.709206
4.87765
-6.08747
0.469434
-4.00875
3.87327
4.81758
5.07416
-11.314
-0.220283
-6.18022
1.12098
-7.3012
5.50323
-3.53145
7.65634
-10.3088
6.87421
-9.1843
6.48298
-0.818223
6.23985
-4.05493
2.75145
-8.4376
-6.83809
5.55638
-2.79769
6.2885
-3.17554
9.46405
-5.89502
5.34197
4.12208
-1.03253
-4.18036
-5.34161
4.30909
0.00035466
4.16286
4.98034
-2.87302
4.65081
2.27002
-4.66281
-2.12761
-6.49621
1.8334
-3.34003
-1.9213
3.7547
3.16375
3.75482
1.23418
-3.34956
7.20068
-8.17747
-1.87173
-3.28415
5.33036
-1.02128
3.44081
-6.72496
-1.87263
4.78206
-0.778993
-4.00307
0.85193
-4.41782
1.67562
-6.09344
5.26188
-5.67173
2.22164
-9.73893
-5.18076
-5.14018
-2.25783
-5.2229
-7.5588
5.30097
-1.80531
5.49621
-8.48911
7.71011
-3.47776
8.77873
-5.42305
-1.04961
5.84015
1.31258
10.0913
0.227048
-4.7442
-1.92511
3.83433
-1.90922
1.16961
-3.46649
0.367843
2.49555
3.55423
-6.79799
0.0203583
-4.72385
-3.91356
7.92549
5.60204
11.57
1.24047
9.10435
-1.17886
10.3448
4.13453
4.37018
-2.98113
4.44112
0.965083
4.57217
-0.927117
2.80298
1.62462
1.71489
0.680835
2.30352
1.33763
3.13032
0.0901611
-2.01052
4.6171
-8.58806
-0.96656
-8.01404
1.13832
5.70396
-4.56564
2.9207
-0.761249
1.01148
-0.138103
-1.17692
1.31502
-2.77321
-1.9317
-0.482084
-1.69895
2.34999
1.88646
-1.86791
-0.905296
0.353045
-4.02197
3.19036
-3.15007
-0.29086
6.27321
-2.8159
0.224548
-1.18109
-2.40722
-2.86544
2.68106
6.1763
0.293937
3.11369
5.19704
3.09936
0.226339
3.88038
-5.65482
-3.68853
-5.87511
-0.371874
4.50577
1.76806
7.98873
5.89014
4.86886
-1.8561
-10.0336
6.50591
-2.06479
5.17236
-1.16929
-4.92415
5.05209
2.37743
-5.71106
0.0393292
-4.88482
-6.9496
-0.511325
8.22144
-9.57998
8.53037
5.69054
1.36411
-4.39943
-0.740747
4.23533
0.13485
10.4797
-1.12931
-6.70036
7.82967
-4.57465
3.60809
0.730531
2.65895
2.04555
1.2843
-5.41606
-9.9817
-2.07218
-1.52043
-4.45239
0.539266
-2.42572
6.21493
-2.60684
3.90639
5.22283
6.2343
-2.12666
-4.09396
6.41458
-2.50819
3.72611
)
;

boundaryField
{
    wall-4
    {
        type            calculated;
        value           uniform 0;
    }
    velocity-inlet-5
    {
        type            calculated;
        value           uniform -3.75095;
    }
    velocity-inlet-6
    {
        type            calculated;
        value           uniform -5.62643;
    }
    pressure-outlet-7
    {
        type            calculated;
        value           nonuniform List<scalar> 8(3.30603 7.75641 4.46277 9.66748 7.41908 5.1683 5.78792 8.94537);
    }
    wall-8
    {
        type            calculated;
        value           uniform 0;
    }
    frontAndBackPlanes
    {
        type            empty;
        value           nonuniform List<scalar> 0();
    }
}


// ************************************************************************* //
