/*--------------------------------*- C++ -*----------------------------------*\
| =========                 |                                                 |
| \\      /  F ield         | OpenFOAM: The Open Source CFD Toolbox           |
|  \\    /   O peration     | Version:  2206                                  |
|   \\  /    A nd           | Website:  www.openfoam.com                      |
|    \\/     M anipulation  |                                                 |
\*---------------------------------------------------------------------------*/
FoamFile
{
    version     2.0;
    format      ascii;
    arch        "LSB;label=32;scalar=64";
    class       volVectorField;
    location    "81";
    object      U;
}
// * * * * * * * * * * * * * * * * * * * * * * * * * * * * * * * * * * * * * //

dimensions      [0 1 -1 0 0 0 0];

internalField   nonuniform List<vector> 
918
(
(0.98516 -0.000508294 0)
(0.00501669 2.96625 0)
(0.00750737 0.884873 0)
(0.979705 0.00214508 0)
(-0.0120835 2.06257 3.78038e-20)
(-0.00705172 2.9488 -2.43819e-18)
(0.821965 1.1676 4.51723e-19)
(0.0983312 0.0680109 -1.45283e-20)
(0.999909 -0.000275287 0)
(0.0664807 0.735568 0)
(0.0179085 0.47674 0)
(0.73161 0.00636336 0)
(0.0111391 2.93035 0)
(0.00259574 2.79544 0)
(-0.0179471 3.14649 7.82437e-19)
(-0.0211279 1.91749 1.18614e-20)
(0.286855 0.059084 1.01823e-18)
(0.189142 1.14448 3.1801e-19)
(0.962712 0.00501681 0)
(0.00656044 0.439206 0)
(-0.00846873 0.0260257 -6.7154e-19)
(1.00197 -0.00497423 0)
(1.00023 -0.00978317 0)
(0.975741 -0.00643861 0)
(0.598239 0.0302752 0)
(0.0136159 2.64268 0)
(-0.0148509 2.91 8.9478e-19)
(0.0116094 0.929163 0)
(-0.0202008 1.18374 0)
(0.0139263 0.913022 0)
(-0.0148409 2.5865 0)
(-0.000972983 2.11622 -3.01927e-20)
(-0.0110491 1.89796 0)
(-0.0205926 2.98761 -8.75486e-23)
(-0.01668 3.00528 1.89471e-18)
(0.00209893 3.00016 0)
(0.871471 -0.00965755 0)
(0.401446 0.930748 1.80816e-19)
(0.808748 1.18108 -5.17812e-19)
(0.959645 1.02808 5.63172e-19)
(0.676327 1.27282 -1.05227e-19)
(0.676156 1.24655 6.0284e-19)
(0.124592 0.120759 1.41715e-20)
(0.13476 0.057535 0)
(1.16634 0.566155 0)
(0.0911407 0.0891054 6.38644e-20)
(0.0620588 0.0456631 -6.6282e-20)
(0.919929 -0.00745792 0)
(1.00027 0.000162822 0)
(0.999909 0.000339581 0)
(1.00363 -0.00775712 0)
(1.00096 -0.000918173 0)
(1.00017 3.82633e-05 0)
(0.0728286 1.82648 -7.68049e-19)
(0.0324754 0.94727 0)
(0.0983969 0.815138 0)
(0.0143687 0.895194 0)
(0.0420008 0.654984 0)
(0.00684525 2.0156 0)
(0.00161739 0.775431 0)
(0.0185995 0.498268 0)
(-0.00421064 0.762017 0)
(0.00919132 0.460487 0)
(0.842183 -0.0156613 0)
(0.842511 0.0268065 0)
(0.757863 0.00306507 0)
(0.801269 0.0290048 0)
(0.700676 0.0180658 0)
(0.01468 3.00041 9.03352e-19)
(0.011482 3.00813 0)
(0.00609704 3.00273 0)
(0.013548 2.99739 1.02416e-23)
(0.00794915 2.95847 -1.3426e-18)
(0.0145023 2.98199 0)
(0.0109025 2.90355 0)
(0.0241116 2.93075 2.04546e-24)
(0.00474809 2.82531 0)
(0.0305257 2.91674 0)
(-0.00480814 2.74589 0)
(0.303952 3.53796 0)
(-0.131503 3.61831 0)
(0.136982 3.23635 -7.28124e-19)
(-0.0140048 2.97569 0)
(-0.0266512 1.98558 0)
(-0.00685787 2.16916 -1.16989e-20)
(-0.015123 1.92572 6.58842e-21)
(0.337891 0.138199 -3.53582e-19)
(0.31788 0.0351529 -3.43602e-19)
(0.292419 0.141642 -1.0587e-18)
(0.250985 0.0654131 -6.87729e-19)
(0.229771 0.985621 0)
(0.272769 1.29467 -3.69804e-19)
(0.367151 1.22979 6.17026e-19)
(0.987427 0.00857477 0)
(0.941846 0.00581317 0)
(1.0003 0.0005817 0)
(1.00286 0.00931036 0)
(1.00301 0.00847333 -2.7457e-18)
(0.991906 0.00969528 2.07345e-18)
(-0.0142823 0.761803 0)
(0.00895309 0.44359 0)
(-0.0526763 1.008 0)
(-0.0311579 0.811885 0)
(0.0025172 0.446361 0)
(-0.08502 0.0846362 2.08504e-19)
(0.0385564 0.0526049 0)
(0.993556 -0.00836832 0)
(0.954475 -0.00653431 0)
(0.743962 0.0296775 0)
(0.678549 0.0277454 0)
(0.660832 0.0252144 0)
(0.972783 -0.00710021 0)
(0.587325 0.0737558 0)
(0.456483 -0.00328246 1.54176e-18)
(-0.0372542 2.86132 6.55908e-19)
(0.0408328 2.91019 0)
(0.0536616 2.88627 0)
(-0.00477485 2.70139 0)
(-0.0131228 2.98519 8.46151e-19)
(-0.0178062 2.89499 0)
(-0.0154243 2.98804 -2.62598e-18)
(-0.0132435 2.92517 8.99535e-19)
(-0.0345772 1.35141 0)
(-0.00636556 1.38202 0)
(-0.00706923 2.13416 5.66756e-22)
(-0.00607785 2.09609 0)
(-0.0232615 1.90516 0)
(0.938707 -0.00735546 0)
(0.857669 -0.00997159 0)
(0.86284 0.00525206 0)
(0.949674 -0.00778743 0)
(0.884141 -0.00819941 0)
(0.512583 1.12342 -2.28261e-19)
(0.56178 1.17434 0)
(0.366233 0.875807 3.3676e-20)
(0.309158 0.734574 0)
(0.92215 1.06395 -1.55625e-19)
(1.04164 0.873927 3.18059e-19)
(0.360109 1.35679 0)
(0.528426 1.3282 0)
(0.54999 1.2667 0)
(0.121523 0.185033 -3.02972e-19)
(0.160041 0.11359 0)
(0.171738 0.0959557 1.89162e-19)
(1.01236 0.928132 0)
(1.0869 0.781743 0)
(1.11223 0.723495 -2.54423e-19)
(1.14569 0.625596 0)
(1.1958 0.408714 5.78174e-20)
(0.95781 -0.00868193 0)
(0.962544 -0.0100196 0)
(0.901807 -0.00798875 0)
(0.984212 -0.00913916 0)
(0.974728 -0.00932107 0)
(0.937154 -0.00637505 0)
(1.00019 0.00234122 0)
(1.0009 0.00141743 0)
(0.999909 0.000856161 0)
(0.0355334 2.07253 4.25813e-19)
(0.118554 1.76954 0)
(0.0181465 2.18606 6.5351e-19)
(0.0459577 1.88069 -5.43938e-19)
(0.106879 1.14958 -2.60419e-19)
(0.0496991 1.02828 0)
(0.142889 0.981469 0)
(0.00871276 0.847385 0)
(0.0209941 0.592094 0)
(-0.00093432 2.24174 -7.65113e-22)
(0.0159908 2.01955 0)
(-0.00180428 2.24424 -2.52512e-20)
(0.00824261 2.02506 3.72667e-20)
(0.00611781 0.816235 0)
(0.00418128 0.793129 0)
(0.0146166 0.54052 0)
(-0.0100292 0.756048 0)
(0.00569203 0.445779 0)
(0.938872 0.00987799 0)
(0.85098 -0.0145942 0)
(0.927929 0.000503999 0)
(0.842913 -0.0128679 0)
(0.809929 -2.51486e-06 0)
(0.899055 0.0212891 0)
(0.875196 0.0244804 0)
(0.783689 -6.55651e-05 0)
(0.00555371 3.06474 -8.40293e-21)
(0.0166708 3.05773 0)
(0.0146208 2.969 0)
(0.00863771 2.8762 0)
(0.918744 3.94893 0)
(1.2315 3.28285 9.23649e-19)
(0.0685248 3.06817 0)
(-0.0297754 2.90162 0)
(-0.0103628 1.40512 0)
(-0.0324498 1.69931 0)
(-0.0189477 1.53689 0)
(-0.0305673 2.54569 -9.03106e-21)
(-0.0148001 2.23873 0)
(-0.0205023 2.38564 0)
(-0.0010936 1.95256 6.64168e-22)
(-0.00349488 2.24015 -1.11719e-20)
(-0.005351 2.20392 -6.88043e-21)
(-0.00898698 1.93735 0)
(0.388915 0.122036 5.4037e-19)
(0.366733 0.0216711 -5.30259e-19)
(0.258415 1.58527 0)
(0.27818 0.758788 -3.15611e-19)
(0.176868 1.67258 -1.04627e-18)
(0.225709 1.22136 1.04853e-18)
(0.901942 0.00613923 0)
(0.967342 0.0112158 0)
(0.974519 0.010829 0)
(0.923258 0.00633882 0)
(-0.0120154 0.753851 0)
(-0.0137554 0.754103 0)
(0.00669031 0.437228 0)
(0.0803342 0.0644396 5.87318e-19)
(0.0758139 0.0405503 -6.91821e-19)
(0.0372914 0.0367953 0)
(1.10188 0.08713 2.69469e-20)
(1.08388 0.0400263 0)
(1.01511 0.0404351 0)
(0.908606 -0.00503946 0)
(0.442266 0.103599 0)
(0.50184 0.0872066 -2.46423e-18)
(0.410335 0.0152083 9.21814e-19)
(0.00855979 2.98031 7.05555e-19)
(-0.0331905 2.86464 4.55192e-20)
(0.00363199 3.05028 -1.78053e-20)
(0.0202213 3.04331 6.33485e-19)
(-0.0149857 2.99658 2.95564e-20)
(-0.0129615 2.94949 -1.18901e-22)
(-0.0172701 3.0119 -5.47386e-19)
(0.0149312 3.0236 3.96517e-19)
(0.00743628 3.03691 -6.27868e-19)
(0.934241 -0.00114797 0)
(0.939636 -0.00315132 0)
(0.846244 -0.0094592 0)
(0.956395 0.0121513 0)
(0.94237 0.0136496 0)
(0.881432 0.00546021 0)
(0.916177 0.0177108 0)
(0.925379 0.0155299 0)
(0.837473 0.00216769 0)
(0.714858 1.40007 3.82647e-20)
(0.74813 1.5086 0)
(0.180012 0.312753 7.05739e-20)
(0.229932 0.669327 5.67421e-19)
(0.262196 0.719084 -3.31641e-19)
(0.261949 0.517434 6.60237e-19)
(0.347151 0.813134 1.59423e-18)
(0.141262 0.23103 3.76257e-19)
(0.24807 0.144206 7.27434e-19)
(0.207165 0.136453 1.88416e-19)
(0.214806 0.0756443 3.56844e-19)
(1.18471 0.466814 6.80522e-20)
(1.19945 0.258571 6.30747e-20)
(0.0103371 2.23478 2.50897e-19)
(0.0402756 1.94893 0)
(0.971781 0.0296543 0)
(0.944052 0.0140938 0)
(0.870086 -0.0177363 0)
(0.0113663 3.07434 0)
(0.0196396 2.94402 1.15672e-18)
(0.0164053 2.95634 0)
(0.00638705 2.85063 -1.14762e-18)
(0.00622984 3.09074 2.80401e-19)
(0.00718688 3.08251 0)
(0.780793 1.80968 -1.57779e-19)
(1.23931 2.48442 3.99929e-19)
(0.762741 1.9489 -1.22346e-18)
(0.0196161 2.98033 -6.06459e-19)
(0.0348367 2.99867 0)
(-0.0346042 2.87636 0)
(-0.00393677 2.22381 -1.31257e-20)
(-0.00307223 2.2447 1.91158e-20)
(0.00159741 1.98736 -7.21002e-21)
(0.278306 1.39492 1.02412e-18)
(0.239984 0.55444 -7.02149e-19)
(0.0637159 1.99744 7.59983e-19)
(0.135044 1.88372 -9.07811e-19)
(0.180076 1.51259 9.52616e-20)
(0.00155459 3.119 -1.74292e-18)
(0.0144391 3.11851 1.87893e-18)
(-0.00910612 2.98115 7.75505e-19)
(-0.00411123 2.9774 -7.3087e-19)
(-0.0209374 2.88085 -7.89835e-19)
(0.0085503 3.10018 -2.08427e-18)
(0.00227725 3.10548 2.04624e-18)
(0.283304 0.69619 0)
(0.249247 0.684712 -1.18153e-18)
(0.0958641 0.224874 5.24534e-19)
(0.358447 0.940541 1.11394e-18)
(0.196317 0.277292 -1.71752e-18)
(1.18978 0.176282 6.19186e-20)
(1.19975 0.313508 0)
(1.17817 0.123626 -4.77721e-21)
(0.00157203 2.25338 -1.42097e-21)
(0.00498791 2.24476 0)
(0.0245994 1.98485 0)
(0.339901 1.30396 -3.67602e-19)
(0.375344 1.15231 -7.99957e-19)
(0.211054 0.379693 1.42684e-18)
(1.00588 -0.0108227 0)
(1.00767 -0.00763056 5.06485e-19)
(-0.0292222 1.33238 0)
(-0.041917 1.33272 0)
(1.00221 0.00351688 1.81289e-21)
(1.00367 0.0094751 1.03423e-18)
(-0.0190162 2.53049 1.14465e-20)
(-0.0241337 2.57315 0)
(0.0335914 3.17635 3.99268e-19)
(0.389051 3.48145 0)
(1.17886 0.667832 -5.53519e-20)
(1.01283 0.0131445 -2.12678e-21)
(1.02136 -0.010266 0)
(1.0017 0.000135019 8.01232e-23)
(0.11303 1.37179 0)
(0.143307 2.56572 0)
(0.035237 1.31625 0)
(0.000159011 2.61741 2.44619e-20)
(-0.0213541 2.57432 -5.46108e-22)
(0.999576 0.0311802 2.57924e-21)
(1.06333 0.00491164 0)
(1.09801 0.0255523 0)
(-0.0308125 1.7429 0)
(-0.0186269 2.57446 0)
(-0.0087974 1.32129 0)
(0.311463 1.48439 -1.6877e-19)
(1.01131 -0.00960747 0)
(1.0094 -0.0149142 0)
(1.00237 0.000760114 6.47315e-19)
(1.00547 -0.00479418 -7.60788e-19)
(1.00118 -0.000963843 0)
(-0.0181812 1.4725 0)
(-0.00771753 1.38527 0)
(-0.0102233 1.43019 0)
(-0.0128565 1.30804 0)
(-0.0247601 1.2948 0)
(-0.0160386 1.27902 0)
(1.03511 -0.00599933 0)
(1.01966 0.0159387 -9.32871e-22)
(0.824566 1.27687 2.63187e-19)
(1.00223 0.000327482 -6.44757e-19)
(1.00406 0.00526652 7.5494e-19)
(1.00118 0.00207929 0)
(1.0127 0.0103926 6.41789e-19)
(1.00797 0.00831982 -7.77641e-19)
(1.00856 0.0146878 0)
(-0.0236989 2.60182 0)
(-0.0257974 2.58092 -2.13215e-20)
(-0.0230392 2.59528 1.51361e-20)
(1.23972 0.269989 5.76869e-19)
(1.16391 0.0878423 0)
(0.0387409 3.07799 -8.96691e-19)
(0.0650189 2.85665 -6.51594e-20)
(0.137293 3.19149 1.37433e-18)
(0.132293 3.21919 -1.91415e-19)
(0.131791 3.22939 0)
(0.0195179 3.13731 2.31172e-19)
(0.0737535 3.15961 8.84069e-19)
(0.0665261 3.18472 -4.35841e-19)
(0.0218494 3.1299 0)
(0.554247 0.282359 0)
(0.491128 0.302364 0)
(1.15114 0.704126 1.23984e-19)
(1.14417 0.825632 -1.05516e-19)
(1.20667 0.590719 0)
(1.23381 0.52426 0)
(1.01599 0.0133984 -1.19624e-18)
(1.01496 0.0142461 1.50185e-18)
(1.02542 -0.00978133 0)
(1.02349 -0.0118299 0)
(1.00642 0.00266153 0)
(1.01042 0.00376512 0)
(1.00458 0.00187535 0)
(1.00978 0.00627057 0)
(1.0078 0.00597115 0)
(1.00451 0.00473484 0)
(0.101484 1.37028 0)
(0.0985987 1.3326 0)
(0.131998 1.40681 0)
(0.150232 1.41125 0)
(0.14537 2.59088 0)
(0.184876 2.6615 -4.21613e-19)
(0.101673 2.64591 0)
(0.0853633 2.64895 1.96512e-19)
(0.039031 2.67207 -1.44365e-19)
(0.022214 1.33174 0)
(0.0317412 1.24962 0)
(0.0247421 1.34164 0)
(0.0470649 1.26982 0)
(0.00419707 1.98196 7.43623e-21)
(-0.0202146 2.60213 -2.4373e-20)
(-0.00791523 2.65873 8.1035e-21)
(-0.0178628 2.67815 0)
(-0.0232114 2.60766 6.24203e-21)
(-0.0233209 2.6026 1.98759e-20)
(0.0129333 1.97996 -2.0973e-21)
(-0.00769618 2.38902 3.26971e-20)
(-0.0131045 2.41211 -9.1904e-21)
(1.01227 0.0397819 1.21062e-18)
(1.00516 0.0211358 -1.50729e-18)
(1.00425 0.0471602 -1.23365e-18)
(0.978531 0.0382259 1.55273e-18)
(1.06453 0.00871908 0)
(1.04961 -0.00811154 0)
(1.09508 0.0356305 0)
(1.07473 0.0132932 0)
(1.07252 0.000955038 0)
(1.14105 0.0846684 0)
(1.11259 0.0454177 0)
(1.11676 0.0330856 0)
(-0.0260405 2.42432 1.55425e-21)
(-0.0156722 2.01211 0)
(-0.0178483 2.21196 0)
(-0.0205247 2.5951 -1.32583e-20)
(-0.0176781 2.60538 2.87056e-22)
(0.00128461 1.58494 -4.09241e-20)
(-0.00921078 1.51265 4.17211e-20)
(-0.0189217 1.40219 0)
(-0.0223697 1.40877 0)
(-0.0294367 1.40317 0)
(-0.00562748 1.32272 0)
(0.00901707 1.24225 0)
(0.387603 1.50183 2.74963e-19)
(0.430912 1.50243 1.45694e-19)
(0.597044 2.44152 -2.40342e-19)
(0.397438 2.53889 7.06616e-19)
(0.348581 2.04867 7.15598e-20)
(1.0211 -0.00808543 0)
(1.01552 -0.00972974 0)
(1.01493 -0.0154976 0)
(1.0074 -0.00104742 0)
(1.00493 -0.000900699 0)
(1.00779 -0.00466808 0)
(1.00928 -0.00357969 0)
(1.01424 -0.00434065 0)
(1.02037 0.0165777 1.17214e-18)
(1.01749 0.0156394 -1.50014e-18)
(1.02068 0.0188647 -1.18175e-18)
(1.01804 0.0172876 1.48064e-18)
(0.787771 1.32724 0)
(0.723016 1.37845 2.48957e-19)
(0.900884 1.22745 1.00563e-19)
(0.94676 1.17326 -1.33836e-19)
(1.15307 2.59577 2.8251e-19)
(0.764139 0.123306 6.00263e-19)
(1.16453 0.110757 0)
(1.21426 0.196703 -4.6443e-19)
(1.20188 0.156851 -1.98078e-20)
(1.00577 0.158993 0)
(0.125814 2.95872 5.22899e-19)
(0.101742 2.86415 -1.13692e-18)
(0.00696214 2.37786 7.56832e-19)
(0.107386 -0.180569 -3.08845e-19)
(0.334036 3.41192 -2.18054e-19)
(0.189389 3.30727 0)
(0.233743 3.34708 2.83985e-19)
(0.236872 3.03071 -1.75544e-18)
(0.329991 3.18858 0)
(0.00654006 3.121 4.52088e-20)
(0.015797 3.12983 -5.33797e-19)
(0.0145672 3.12593 7.85646e-19)
(0.0346488 3.13979 0)
(0.0330899 3.15011 0)
(1.20754 2.59276 0)
(0.550532 0.797014 -5.26262e-19)
(1.07056 0.998203 -1.20224e-20)
(1.00611 1.08228 0)
(0.859845 0.976778 -1.08501e-19)
(1.0975 0.899283 2.7826e-20)
(0.283494 0.307061 -8.16465e-19)
(0.64093 0.326261 -1.63068e-20)
(0.522191 0.22031 4.04674e-19)
(0.512799 0.337945 2.8926e-20)
(0.399794 0.266 -1.15924e-18)
(0.593716 0.326761 0)
(0.710581 0.432458 6.60182e-19)
(0.70721 0.432882 0)
(0.554513 0.34255 0)
(0.460285 0.240512 0)
(0.832994 0.630565 4.05467e-19)
(1.24115 0.292537 -4.85073e-19)
(1.24184 0.432251 0)
(1.24987 0.372265 0)
(0.671229 0.195298 6.21191e-19)
(0.877414 0.561688 -3.69715e-19)
(0.777296 0.53983 6.60379e-19)
(0.963543 0.452493 -7.31027e-19)
(1.01912 0.0150481 8.04552e-19)
(1.01747 0.014405 -8.0839e-19)
(1.01584 0.0153192 0)
(1.03658 -0.00553865 0)
(1.02997 -0.00832983 -7.57566e-19)
(1.02802 -0.0119271 7.50036e-19)
(1.02491 0.0107438 0)
(1.02337 0.0145777 0)
(1.01141 0.00419721 0)
(1.01417 0.00920607 0)
(1.01516 0.00423435 0)
(1.01427 0.00293697 0)
(0.0723925 1.3537 0)
(0.0796272 1.29881 0)
(0.148555 1.3884 8.72058e-21)
(0.282132 1.48272 8.97277e-20)
(0.177267 1.45346 1.88711e-19)
(0.209763 1.4587 -3.07712e-19)
(0.17742 1.41359 0)
(0.1363 1.59972 -7.01622e-20)
(0.120016 1.57934 0)
(0.344386 1.99753 -1.04058e-19)
(0.341008 2.33477 6.12442e-19)
(0.196216 1.46629 6.11653e-20)
(0.269523 1.39972 2.3582e-20)
(0.202677 1.39274 -1.90407e-20)
(0.279302 1.34261 -1.03697e-19)
(0.242792 1.5785 0)
(0.269471 1.61518 1.12672e-19)
(0.031121 2.25524 -2.81565e-20)
(0.0440338 2.66117 0)
(0.0667991 2.39163 1.34564e-19)
(0.0635031 2.41235 0)
(0.0698933 2.66256 -2.17784e-19)
(0.04952 2.69142 0)
(0.029374 1.44969 3.87671e-20)
(0.0365948 1.49679 0)
(0.0344675 1.41439 0)
(0.0294453 1.42124 -4.3748e-20)
(0.000957848 2.64495 -1.67816e-20)
(0.0300581 2.69052 1.61583e-19)
(0.01073 2.71576 1.13321e-21)
(0.00516998 1.84037 -9.44165e-21)
(-0.00133794 1.69458 -5.60754e-21)
(0.0182778 1.30979 0)
(0.0273879 1.22552 0)
(0.0461292 1.59664 -3.12624e-20)
(0.03557 1.47638 -3.73602e-20)
(0.039148 1.53941 4.66881e-20)
(0.0411032 1.62005 0)
(-0.0301218 2.26559 1.05334e-19)
(-0.0311629 2.54181 -4.38176e-20)
(-0.0172241 2.44015 5.14415e-21)
(-0.00253847 1.85553 1.14403e-20)
(-0.0261689 2.49291 4.64427e-21)
(-0.0206114 2.43757 -8.33512e-21)
(1.01889 0.0222546 -8.03474e-19)
(1.01572 0.0285159 8.06425e-19)
(1.01256 0.0181835 0)
(1.00932 0.0714585 1.13016e-18)
(0.991744 0.0620081 -1.26179e-18)
(0.951023 0.0566785 1.41083e-18)
(1.01331 0.112017 -1.50418e-19)
(1.04303 -0.0055047 0)
(1.05149 -0.00106601 7.2226e-19)
(1.03934 -0.00967038 -7.23749e-19)
(1.07235 0.0433195 -4.29518e-20)
(1.06523 0.0244207 3.70481e-19)
(1.06304 0.0575541 0)
(1.05428 0.0510301 -1.33277e-19)
(1.03205 0.0422998 0)
(1.02661 0.0386765 0)
(1.02798 0.0139383 0)
(1.02398 0.0166368 0)
(1.04023 0.0333836 2.74489e-19)
(1.0388 0.0270658 -6.06884e-19)
(1.05148 0.0349144 -2.90863e-19)
(1.0483 0.0350949 -3.20416e-19)
(1.07178 0.0659485 6.2526e-19)
(1.09738 0.0537839 0)
(1.10692 0.098236 0)
(-0.0259477 2.2702 5.8271e-20)
(-0.0255116 2.01823 1.38444e-21)
(-0.0216377 2.02559 0)
(-0.0269829 2.43852 -5.79991e-20)
(-0.0223097 2.39483 -2.86961e-21)
(-0.0331792 2.46524 6.16257e-21)
(-0.020719 2.61493 -1.75802e-20)
(-0.0235177 2.5562 4.65202e-22)
(-0.0222549 2.50835 -5.0831e-21)
(-0.0158482 2.60846 1.33468e-20)
(-0.0208787 2.61065 -1.46828e-20)
(-0.00759515 1.51294 -9.84752e-22)
(0.00172986 1.63214 -4.03264e-20)
(0.372662 1.45078 -1.16164e-19)
(0.372658 1.38373 3.75345e-20)
(0.663659 1.42829 -2.40804e-19)
(0.529949 1.49517 -1.43074e-19)
(0.58803 1.46113 0)
(0.592766 2.41867 2.06832e-19)
(0.661372 2.4147 3.37438e-19)
(0.410769 2.50789 8.81664e-20)
(0.402013 2.53189 -6.06868e-19)
(0.509613 2.47246 6.13542e-19)
(0.552837 2.45533 0)
(0.487334 2.51324 -5.58512e-19)
(0.248049 2.58521 1.13938e-18)
(0.354388 2.55723 -7.70097e-20)
(0.283538 2.64695 -1.58211e-18)
(0.948106 2.37156 7.29012e-19)
(0.837937 2.37723 0)
(1.01109 0.000552373 2.626e-20)
(1.01538 -0.00533941 -2.12998e-20)
(1.01769 -0.00343827 -3.89018e-19)
(1.01506 -0.000796489 3.91135e-19)
(1.01248 0.00130642 0)
(0.651111 1.29236 0)
(0.675266 1.18621 0)
(0.789717 1.10552 0)
(0.668491 1.1495 0)
(1.18321 2.60924 6.00452e-20)
(1.07114 2.35674 0)
(0.832451 2.15779 3.87872e-21)
(0.822745 2.42524 0)
(0.921038 2.51949 -4.23548e-19)
(0.956222 2.47561 2.81705e-19)
(0.795795 0.183976 0)
(0.736228 0.156841 1.62914e-19)
(0.905577 0.153193 9.4877e-19)
(0.821388 0.156325 -3.54896e-19)
(0.775509 0.090536 -1.09718e-18)
(1.0832 0.243944 -8.90861e-19)
(1.00011 0.308225 -1.8053e-20)
(0.926887 0.312259 8.58556e-19)
(1.00684 0.237729 7.21547e-19)
(0.947318 0.201671 -1.25483e-18)
(0.908325 0.20608 1.56996e-19)
(0.946557 0.273675 -3.32863e-19)
(0.924354 0.232465 0)
(0.995768 0.198312 6.18681e-19)
(1.0472 0.196721 0)
(1.04517 0.22547 0)
(1.10817 0.122719 2.89681e-19)
(1.0722 0.182976 -1.52049e-20)
(1.07653 0.243811 -1.57619e-19)
(1.10188 0.209467 0)
(1.02113 0.0467812 6.19052e-19)
(1.03983 0.0600186 7.72493e-19)
(1.03362 0.0453316 -6.15187e-19)
(1.04236 0.0680871 -5.18339e-19)
(1.01761 0.0762952 -7.96315e-19)
(0.984128 0.161298 0)
(0.988968 0.106585 0)
(0.96589 0.0770504 -5.01932e-19)
(0.903955 0.098278 1.99861e-19)
(1.04032 0.108926 7.16125e-19)
(1.06943 0.126085 -8.35683e-19)
(1.07661 0.158788 7.46248e-19)
(1.03184 0.153572 0)
(1.07492 0.113414 0)
(1.05381 0.0940405 -3.4253e-19)
(1.04415 0.0998197 -5.84199e-19)
(0.578591 1.04982 1.41621e-19)
(0.601839 1.37183 -4.33098e-20)
(1.15319 2.72474 -2.30612e-19)
(1.21845 3.06739 2.90613e-21)
(1.24465 2.70785 -1.27198e-19)
(1.2726 2.6908 -2.95381e-20)
(1.19958 2.33084 -1.12978e-20)
(1.20629 2.97117 -9.67354e-20)
(1.22671 2.93679 2.39286e-19)
(1.20826 3.21989 -1.41112e-19)
(1.36738 2.9503 1.94931e-19)
(1.35534 2.8682 0)
(0.570965 0.80657 -5.06562e-20)
(0.0998043 1.21425 5.66712e-19)
(0.566114 0.323891 5.36396e-19)
(0.403028 0.0684574 5.76414e-19)
(0.453443 0.30926 6.58006e-19)
(0.546051 0.425262 -1.07238e-18)
(0.549382 0.419471 8.78245e-19)
(0.4524 0.286876 -3.32638e-19)
(0.307848 0.215491 7.44845e-19)
(0.699754 0.272739 -3.59178e-19)
(0.655164 0.294396 0)
(0.583864 0.208168 6.09081e-21)
(0.745188 0.514675 3.57737e-19)
(0.728446 0.486188 -1.3003e-18)
(0.624893 0.448033 9.20978e-21)
(0.616793 0.438505 0)
(0.699035 0.718327 3.94815e-19)
(0.861734 0.783133 3.90727e-19)
(0.785855 0.865583 -4.57327e-19)
(0.907055 0.820513 -1.5222e-19)
(0.937967 0.865644 -3.65322e-20)
(0.944952 0.865319 3.74117e-20)
(0.872334 0.665823 -6.71749e-19)
(0.952276 0.718298 1.41331e-19)
(1.01231 0.73288 0)
(1.00298 0.709146 -1.90858e-19)
(1.02989 0.349091 2.10931e-19)
(1.15145 0.309384 2.85945e-19)
(1.07133 0.281593 3.64067e-19)
(1.02069 0.38205 -4.29268e-19)
(1.06972 0.444375 0)
(1.12619 0.424163 0)
(0.920893 0.385458 1.16708e-21)
(0.836424 0.320458 0)
(0.886443 0.31904 4.05948e-19)
(0.909995 0.320541 -8.4292e-21)
(0.958726 0.456261 2.03606e-18)
(0.920444 0.511772 5.22489e-19)
(0.924523 0.478505 -5.57893e-19)
(0.838309 0.467141 5.99266e-19)
(0.823021 0.462495 3.59528e-19)
(0.792652 0.445656 -3.52917e-19)
(1.02745 -0.000143085 6.48044e-19)
(1.02005 0.000147632 0)
(1.01857 0.00107361 4.22575e-19)
(1.02178 -0.00145522 -9.57242e-19)
(1.0224 0.00461805 4.65031e-19)
(1.02032 0.011687 -9.7382e-19)
(1.02123 0.0110744 0)
(1.0204 0.011335 -2.02978e-19)
(1.01592 0.00794022 5.09217e-19)
(1.01656 0.010745 -2.5413e-19)
(1.01728 0.0100983 1.87082e-19)
(0.0359302 1.32971 0)
(0.0431627 1.38537 0)
(0.0525183 1.32992 0)
(0.0603906 1.27621 0)
(0.0757832 1.40289 -5.03638e-20)
(0.0861077 1.36866 2.21714e-20)
(0.114374 1.54856 -1.43027e-20)
(0.107839 1.39111 -5.16469e-21)
(0.0410262 1.48147 2.24669e-20)
(0.0447413 1.47512 -1.72957e-20)
(0.0688022 1.39019 -1.09639e-20)
(0.0612602 1.39094 4.73745e-20)
(0.0559214 1.36791 7.0837e-21)
(0.046238 1.39212 4.22797e-21)
(0.107603 2.35899 -1.48637e-19)
(0.096286 2.40797 0)
(0.169415 2.03287 1.08409e-19)
(0.114615 1.70276 3.9622e-20)
(0.234654 2.03087 -8.96448e-20)
(0.199175 2.42125 0)
(0.261892 2.37116 -6.05647e-19)
(0.30202 2.36885 4.27787e-19)
(0.228499 1.99033 -2.49775e-19)
(0.154916 2.14901 1.69494e-19)
(0.14149 2.25542 0)
(0.0188465 1.87738 1.05259e-20)
(0.00104007 2.38383 -2.6682e-20)
(0.00646974 2.14174 0)
(0.0118583 2.44796 -1.37109e-20)
(0.029476 2.29043 6.55082e-21)
(0.018145 1.42949 -8.32116e-21)
(0.014604 1.41115 1.39399e-19)
(0.0135499 1.41934 -4.57857e-20)
(0.0231036 1.42515 -3.90189e-20)
(0.0272756 1.45361 0)
(0.00905227 1.40284 0)
(0.00188268 1.30818 -6.05892e-20)
(0.00391177 1.3968 1.74694e-20)
(0.0101494 1.39487 0)
(0.0109797 1.29971 -4.58407e-20)
(0.0207859 1.2146 9.2581e-20)
(1.04085 0.0121488 0)
(1.04709 0.00843247 -6.7785e-20)
(1.03893 0.0227415 -4.88945e-19)
(1.04861 0.0213878 0)
(1.05246 0.0211871 0)
(1.03655 0.0124219 -6.8086e-21)
(1.03123 0.0122784 7.8598e-19)
(1.03175 0.017323 9.52915e-19)
(1.02565 0.0212682 0)
(1.02262 0.021809 0)
(1.03537 0.026294 4.87811e-19)
(1.02606 0.0280624 0)
(1.02404 0.027814 0)
(-0.0184823 2.0229 0)
(-0.0014202 1.66199 -4.43497e-21)
(-0.00555995 1.76593 -3.18059e-20)
(-0.00371102 1.40329 0)
(-0.00757702 1.5672 -2.33223e-20)
(-0.0114799 1.4797 1.4182e-20)
(-0.0093593 1.41938 0)
(0.387933 1.63653 0)
(0.375543 1.30951 -7.40771e-20)
(0.300314 1.33971 0)
(0.42709 1.30818 9.40018e-21)
(0.478323 1.47289 0)
(0.458526 1.41713 2.41812e-20)
(1.03609 2.67144 -1.54077e-20)
(0.96835 2.39996 -9.16147e-19)
(0.921744 2.18914 1.02597e-18)
(0.852034 2.36905 2.42373e-19)
(0.847365 2.48049 0)
(0.917057 2.47653 0)
(0.931458 2.36509 0)
(0.910415 2.35478 -9.46553e-19)
(0.685866 2.44363 -3.95285e-19)
(0.799227 2.433 -9.79555e-20)
(0.809493 2.4071 7.43833e-20)
(0.695163 2.38762 0)
(0.8005 2.38294 0)
(0.758518 2.39656 -3.68987e-19)
(0.766775 2.47025 0)
(0.636742 1.09434 0)
(0.4798 0.893081 -5.20005e-19)
(0.572954 0.940747 -3.28627e-20)
(0.518625 1.02828 0)
(0.519137 0.969248 7.77921e-19)
(0.806165 0.887799 -1.29107e-19)
(0.813826 1.02325 0)
(0.789384 0.990136 1.83825e-19)
(0.67402 1.0345 0)
(0.674981 0.936131 0)
(1.16249 2.74817 -2.31342e-19)
(1.13993 2.81155 -9.89682e-20)
(0.927568 2.32412 1.03768e-19)
(0.895494 2.30395 -8.41316e-20)
(1.12826 2.72122 0)
(1.08225 2.69057 1.01203e-19)
(1.0878 2.47456 -3.14205e-19)
(0.982443 2.22827 -3.01984e-20)
(0.49067 1.32402 0)
(0.507052 1.05645 -1.24802e-19)
(0.579626 1.1678 0)
(0.848954 0.251477 0)
(0.756158 0.200335 0)
(0.662697 0.154986 0)
(0.83998 0.252591 -6.32975e-19)
(0.725347 0.245841 3.74004e-19)
(0.921946 0.0914646 -4.11889e-19)
(0.924428 0.133317 0)
(0.912797 0.142361 1.77983e-19)
(0.848735 0.118662 7.11607e-19)
(0.812774 0.0794076 -4.45939e-19)
(1.15294 3.34458 -7.1373e-19)
(1.20235 3.26425 0)
(1.15047 3.37384 -1.48422e-18)
(0.639178 3.53573 1.25821e-18)
(0.859425 3.10523 6.87998e-20)
(0.524704 0.785832 6.0818e-19)
(0.421772 0.78351 0)
(0.298758 0.348903 -1.47537e-19)
(0.482656 0.64697 8.53956e-19)
(0.573748 0.33206 -1.90251e-19)
(0.51922 0.460244 2.27723e-19)
(0.676492 0.515551 4.82846e-19)
(0.722127 0.557465 0)
(0.671488 0.569804 0)
(0.639492 0.525804 0)
(1.01279 0.619743 8.66132e-20)
(0.926185 0.56124 -5.08853e-19)
(0.95216 0.592374 3.82576e-19)
(0.981063 0.532485 -3.94573e-19)
(1.09009 0.499176 0)
(1.09868 0.590816 -9.55699e-20)
(0.857329 0.418791 -8.27942e-19)
(0.854871 0.406288 -1.02691e-18)
(0.786853 0.401438 6.28442e-19)
(0.795831 0.38997 -6.39099e-19)
(0.843133 0.345343 -5.18969e-19)
(0.789483 0.341652 6.34385e-19)
(1.02677 0.00620416 -4.94746e-19)
(1.02647 0.00643101 1.0068e-18)
(1.02956 0.000326177 6.27965e-19)
(1.03375 0.0012283 -7.56364e-19)
(1.03394 0.00936385 0)
(1.03021 0.0100512 -1.23061e-18)
(0.0642497 1.63854 1.84517e-20)
(0.0527613 1.59074 0)
(0.0913316 1.68786 1.23862e-19)
(0.098516 1.66887 -1.09668e-19)
(0.0926031 1.54966 2.55771e-20)
(0.0917823 1.55143 0)
(0.0122747 1.69525 0)
(-0.00386255 1.51107 1.05405e-20)
(-0.00218884 1.45734 -9.47907e-21)
(-0.00880815 1.5641 5.28188e-21)
(0.00189779 1.88684 1.5373e-20)
(-0.0102722 1.9403 -3.75737e-21)
(0.496692 1.35292 -2.78921e-19)
(0.490325 1.3525 3.06628e-19)
(0.454853 1.3037 -3.27143e-20)
(0.436774 1.28115 7.83147e-21)
(0.643192 1.31078 0)
(0.557485 1.40143 1.05138e-19)
(0.573826 1.40834 -1.02357e-19)
(0.469112 1.29612 3.19406e-20)
(0.524655 1.24299 0)
(0.576016 1.20518 0)
(0.652861 2.40338 5.80665e-19)
(0.66859 2.44546 1.25851e-18)
(0.71296 2.45625 -8.67254e-19)
(0.608987 2.43013 -2.01704e-19)
(0.559419 2.51981 2.83745e-19)
(0.508778 2.49492 -7.56648e-19)
(0.97784 2.37165 -5.74273e-19)
(1.0115 2.38359 0)
(0.925454 2.1672 -6.58537e-19)
(1.05342 2.6696 0)
(1.05576 2.65619 0)
(0.593781 2.25118 -1.353e-19)
(1.0342 3.1505 1.21796e-19)
(0.905452 3.02113 -2.38836e-20)
(0.257813 0.826004 0)
(0.281275 0.665463 -3.18028e-19)
(0.45452 0.627207 -3.21175e-19)
(0.373888 1.99458 0)
(0.45946 2.77666 -4.78951e-20)
(0.412096 2.53911 0)
(0.724751 0.669064 -8.33244e-19)
(0.808675 0.690831 1.11068e-18)
(0.828137 0.631517 -1.09711e-18)
(0.701232 0.633731 -1.06411e-19)
(0.755601 0.593591 -4.35172e-19)
(0.998736 2.7482 -9.26365e-20)
(1.04094 2.81119 -1.70039e-19)
(0.628232 2.11113 7.15826e-19)
(0.579959 1.68065 -5.09483e-19)
(0.691483 1.88288 -4.12654e-19)
(0.985362 2.43246 -1.12991e-19)
(0.992908 2.42544 3.00528e-19)
(0.645185 1.8143 2.86822e-20)
(0.437586 1.30247 1.46161e-19)
)
;

boundaryField
{
    wall-4
    {
        type            noSlip;
    }
    velocity-inlet-5
    {
        type            fixedValue;
        value           uniform (1 0 0);
    }
    velocity-inlet-6
    {
        type            fixedValue;
        value           uniform (0 3 0);
    }
    pressure-outlet-7
    {
        type            zeroGradient;
    }
    wall-8
    {
        type            noSlip;
    }
    frontAndBackPlanes
    {
        type            empty;
    }
}


// ************************************************************************* //
