/*--------------------------------*- C++ -*----------------------------------*\
| =========                 |                                                 |
| \\      /  F ield         | OpenFOAM: The Open Source CFD Toolbox           |
|  \\    /   O peration     | Version:  2206                                  |
|   \\  /    A nd           | Website:  www.openfoam.com                      |
|    \\/     M anipulation  |                                                 |
\*---------------------------------------------------------------------------*/
FoamFile
{
    version     2.0;
    format      ascii;
    arch        "LSB;label=32;scalar=64";
    class       volScalarField;
    location    "78";
    object      p;
}
// * * * * * * * * * * * * * * * * * * * * * * * * * * * * * * * * * * * * * //

dimensions      [0 2 -2 0 0 0 0];

internalField   nonuniform List<scalar> 
918
(
0.557048
1.1747
0.00126082
0.556512
-0.0125938
1.14172
-0.513388
0.651322
0.537256
-0.107341
-0.0577438
0.539463
1.00225
0.767811
-1.12465
-0.0125096
0.651468
-0.382749
0.536383
-0.0656748
0.678168
0.543789
0.546812
0.537389
0.596745
0.741764
0.883125
0.0278655
0.0111919
0.00653127
-0.0120871
-0.0388549
-0.0331525
1.02539
1.07645
1.09913
0.504972
0.333705
-0.379108
-0.452773
-0.438741
-0.541276
0.652815
0.654245
-0.217152
0.652741
0.651696
0.524261
0.536626
0.53754
0.538549
0.53754
0.538917
0.402187
-0.108366
-0.13977
-0.0882759
-0.0812258
0.0493712
-0.0573668
-0.0585116
-0.0567292
-0.0572099
0.454033
0.533921
0.530483
0.54372
0.552953
1.11425
1.0862
1.11234
1.02588
1.04244
0.980264
0.952901
0.788812
0.81041
0.75222
0.740486
-1.55421
-2.50185
-0.536846
-0.287315
-0.0106199
-0.0107559
-0.00541133
0.648802
0.649908
0.651257
0.653082
1.07827
-0.380003
-0.481616
0.536527
0.535338
0.543647
0.544349
0.54037
0.53946
-0.0572612
-0.0547972
-0.054666
-0.0607645
-0.0585324
0.656038
0.660402
0.537916
0.534917
0.56049
0.581105
0.570924
0.276708
0.607735
0.623804
0.575602
0.737201
0.729061
0.738863
0.856698
0.819957
0.920403
0.943628
0.0182343
-0.00019696
-0.0168359
-0.0202832
-0.0193422
0.500798
0.493332
0.521151
0.508413
0.510924
0.250775
0.117861
0.41846
0.443124
-0.298856
-0.366781
-0.431051
-0.46143
-0.568787
0.613363
0.654443
0.651819
-0.226369
-0.154694
-0.288983
-0.0814955
-0.144763
0.514509
0.521535
0.516526
0.5321
0.526562
0.528527
0.540903
0.537971
0.539531
0.464296
0.587781
0.328438
0.292813
-0.243798
-0.155177
-0.243069
-0.0711925
-0.068526
0.0635528
0.0893078
0.0360788
0.0242376
-0.0643905
-0.0597358
-0.0620634
-0.0564443
-0.0562404
0.446743
0.435466
0.46675
0.474328
0.520422
0.521869
0.526383
0.52438
0.903803
0.926057
0.933609
0.907486
-3.48732
-6.26174
0.0360218
0.171742
-0.00665245
-0.00943652
0.00202842
-0.00612441
-6.99794e-05
-0.00213909
-0.0109241
-0.0121486
-0.00676494
-0.00560176
0.643484
0.644298
1.00092
1.00853
0.976005
0.929039
0.524791
0.526837
0.532316
0.528207
-0.0554916
-0.0544705
-0.0543701
0.653047
0.655151
0.654376
0.237988
0.147762
0.328022
0.357343
0.636959
0.626006
0.635223
0.634983
0.670654
0.950981
0.969121
0.967479
0.975829
1.01995
1.03643
1.00162
0.480186
0.4902
0.48513
0.523997
0.5219
0.522738
0.519224
0.5202
0.518412
-0.032178
-0.410958
0.490334
0.506681
0.492722
0.494539
0.693512
0.772166
0.65246
0.653218
0.653226
-0.0116429
-0.0701863
0.247854
0.213534
0.385995
0.422587
0.401447
0.874843
0.835436
0.885463
0.858836
0.820338
0.84597
-0.362523
-1.85774
-0.979224
0.518878
0.334486
0.420797
0.0060099
-0.0106148
-0.00610146
1.00127
1.07297
0.643583
0.818869
0.821128
0.708057
0.738208
0.792974
0.719276
0.753603
0.788014
0.769608
0.569113
0.5035
0.520019
0.84105
0.89657
0.117118
0.0546716
0.0109456
0.108435
0.166103
0.139957
1.03278
0.949977
1.01985
0.534679
0.535404
-0.00596526
-0.0187359
0.539665
0.539723
-0.013281
-0.00259517
0.404477
-0.832107
0.0948458
0.528274
0.518114
0.535274
-0.0932699
0.35359
-0.0583241
0.0448805
-0.0120927
0.529451
0.465198
0.42419
-0.000995411
-0.0218088
-0.0561012
-0.213771
0.532349
0.530654
0.534742
0.535678
0.536362
-0.0200168
-0.0158443
-0.0108213
-0.0521477
-0.0435698
-0.0572312
0.499137
0.518451
-0.172216
0.53489
0.537028
0.536845
0.530127
0.535746
0.534004
-0.0123029
-0.0168366
-0.0193276
0.217656
0.35086
0.642261
0.726879
0.615533
0.392181
0.158457
0.546448
0.609214
0.515707
0.668218
0.648707
0.648481
0.160291
0.00964267
0.169605
0.111504
0.526143
0.524892
0.516365
0.513319
0.530143
0.528259
0.532817
0.529849
0.532799
0.534175
-0.0500359
-0.0761139
-0.0855838
-0.15227
0.30835
0.56934
0.253149
0.282413
0.139262
-0.0523887
-0.0538697
-0.0555191
-0.0615288
-0.00180265
-0.0279525
0.0394447
0.039507
0.0112018
-0.0145695
-0.012213
-0.0233549
-0.0172359
0.522683
0.5228
0.527465
0.53611
0.474887
0.47867
0.443408
0.464235
0.449414
0.387862
0.423469
0.398561
-0.00688388
0.00119373
-0.00357958
-0.0201032
-0.0168374
-0.0358889
-0.032888
-0.0288257
-0.0242977
-0.0310949
-0.05029
-0.0545211
-0.171713
-0.287694
0.987545
0.907374
0.138078
0.52149
0.527954
0.52471
0.529653
0.532782
0.533574
0.531276
0.527821
0.518726
0.520344
0.516888
0.51785
-0.103105
-0.245285
-0.0735742
-0.149078
0.145967
0.628089
0.362752
0.29763
0.293145
0.522884
0.91285
0.694554
0.659408
0.650151
-0.345549
0.04165
-0.282726
0.33142
0.159778
0.641855
0.690928
0.713075
0.660836
0.614068
-0.0990352
0.555646
-0.0773321
-0.0244578
0.177921
0.0521842
0.648363
0.637554
0.645133
0.641589
0.652095
0.640303
0.620841
0.622183
0.639145
0.646015
0.479898
0.248289
0.198571
0.160109
0.643195
0.513227
0.5617
0.487887
0.52146
0.524005
0.522664
0.503974
0.511572
0.507087
0.513644
0.517263
0.525864
0.526354
0.52159
0.523721
-0.0565072
-0.0620319
-0.0267639
-0.13609
-0.128849
-0.191035
-0.0605699
0.0746095
0.0360735
0.23667
0.339929
0.0515302
-0.0575884
-0.0304799
0.0124724
0.179523
0.208221
0.0724997
0.159579
0.1517
0.132357
0.235441
0.238452
-0.0327805
-0.0339802
-0.0387915
-0.0421488
0.0159735
0.0874618
0.0968612
-0.0115
-0.0164298
-0.0512301
-0.0536056
-0.0246185
-0.0295115
-0.0249196
0.00259948
-0.054149
-0.0221949
-0.00853593
-0.00986182
-0.00920374
-0.0146771
0.51769
0.519378
0.519666
0.528425
0.540479
0.555252
0.521079
0.497143
0.487908
0.490914
0.463844
0.474127
0.470026
0.483579
0.504878
0.513322
0.511673
0.514467
0.496887
0.498598
0.485101
0.488772
0.463927
0.444449
0.432399
-0.0441096
-0.00579942
-0.0140601
-0.0394595
-0.00989968
-0.0217684
-0.0141704
0.00545125
-0.0116805
-0.0124152
-0.0228239
-0.0292845
-0.028605
-0.073557
0.0135373
-0.18596
-0.220807
-0.294579
0.88989
1.01414
0.808596
0.581372
0.602411
0.845886
0.929887
0.541424
0.734183
0.757168
0.588012
0.855192
0.526345
0.525936
0.523537
0.523015
0.524238
-0.007293
0.0997646
0.0962723
0.160944
0.277695
0.388964
0.321225
0.195707
0.325368
0.32771
0.620719
0.632783
0.588796
0.612807
0.613563
0.424557
0.500205
0.551896
0.512986
0.565694
0.587529
0.540919
0.574503
0.523273
0.47838
0.474478
0.424186
0.443737
0.419228
0.402385
0.516692
0.493364
0.50435
0.494504
0.516495
0.543215
0.540238
0.562601
0.577589
0.497495
0.452579
0.461873
0.4921
0.453707
0.469234
0.484985
0.234087
0.136614
0.219427
-0.0647805
0.00435216
-0.00760531
-0.0566384
-0.0043841
0.279574
-0.410258
-0.387299
-1.01307
0.50561
0.951262
0.574184
0.553236
0.653253
0.641914
0.647988
0.664593
0.65851
0.631889
0.640019
0.644989
0.590023
0.610868
0.628116
0.624261
0.523474
0.378974
0.379366
0.326062
0.196371
0.236728
0.432055
0.356461
0.281773
0.281856
0.45565
0.341769
0.412476
0.444944
0.37602
0.330722
0.534114
0.600527
0.59358
0.567294
0.476377
0.488038
0.512817
0.546258
0.569491
0.60345
0.513078
0.519037
0.520269
0.517737
0.514997
0.518101
0.518371
0.520979
0.521565
0.524601
0.523683
-0.0533824
-0.0400595
-0.0504902
-0.0616871
-0.0185974
-0.0214549
0.0218426
0.00929719
-0.0173359
-0.0129586
-0.0338727
-0.0379414
-0.0349666
-0.0276178
0.101804
0.114359
0.0988938
0.0590439
0.250383
0.379877
0.454352
0.329148
0.223733
0.247685
0.266164
-0.0147072
0.0105014
-0.00209147
0.0375433
0.0298795
-0.0425131
-0.0466622
-0.0429593
-0.0343586
-0.026167
-0.0441768
-0.0507158
-0.0410565
-0.0459686
-0.0501687
-0.0546206
0.499422
0.492905
0.494497
0.488452
0.487163
0.501375
0.505685
0.507643
0.513109
0.515436
0.505492
0.510898
0.514864
-0.0151402
-0.0381337
-0.041306
-0.0348653
-0.0353562
-0.0328579
-0.0346336
0.123942
0.0552544
0.0588531
0.011436
-0.121678
-0.0634614
0.492745
0.491415
0.480145
0.721678
0.570854
0.49194
0.589102
0.694816
0.277015
0.473147
0.308708
0.888282
0.785395
0.931568
0.542264
0.246883
0.412817
0.453727
0.268197
0.344957
0.323241
0.21251
0.243052
0.282526
0.380923
0.266827
0.24404
0.000222023
0.19141
0.302626
0.284604
0.408461
0.468716
0.268421
0.187828
0.142763
0.605085
0.624573
0.637988
0.610088
0.632712
0.581416
0.573455
0.588833
0.596893
0.59068
-0.74169
-0.447917
-1.39534
-0.720138
-0.263463
0.536199
0.510217
0.770004
0.643671
0.672979
0.657265
0.61812
0.588872
0.615001
0.635674
0.337441
0.448106
0.423059
0.429481
0.332364
0.262108
0.561032
0.558891
0.591532
0.615446
0.587624
0.618122
0.510881
0.510602
0.510068
0.506309
0.504571
0.506914
0.0571954
0.0244644
0.065876
0.0482765
0.0260347
0.0142957
-0.0161244
-0.0264768
-0.0327214
-0.0314027
-0.0167955
-0.0131299
0.173253
0.110002
0.0303843
0.059068
-0.00208723
-0.0706015
-0.0901701
0.0162107
0.112496
0.102644
0.405707
0.654577
0.474707
0.642145
0.485123
0.540818
0.468359
0.459392
0.48403
0.380455
0.460976
0.255224
-0.253789
-0.163184
0.796445
0.806283
0.581293
0.40849
0.175316
0.350417
0.538793
0.467755
0.503016
0.571898
0.558364
0.0334156
0.0893587
0.381288
0.608024
0.242837
0.233684
0.226994
0.413046
0.330249
)
;

boundaryField
{
    wall-4
    {
        type            zeroGradient;
    }
    velocity-inlet-5
    {
        type            zeroGradient;
    }
    velocity-inlet-6
    {
        type            zeroGradient;
    }
    pressure-outlet-7
    {
        type            fixedValue;
        value           uniform 0;
    }
    wall-8
    {
        type            zeroGradient;
    }
    frontAndBackPlanes
    {
        type            empty;
    }
}


// ************************************************************************* //
