/*--------------------------------*- C++ -*----------------------------------*\
| =========                 |                                                 |
| \\      /  F ield         | OpenFOAM: The Open Source CFD Toolbox           |
|  \\    /   O peration     | Version:  2206                                  |
|   \\  /    A nd           | Website:  www.openfoam.com                      |
|    \\/     M anipulation  |                                                 |
\*---------------------------------------------------------------------------*/
FoamFile
{
    version     2.0;
    format      ascii;
    arch        "LSB;label=32;scalar=64";
    class       surfaceScalarField;
    location    "78";
    object      phi;
}
// * * * * * * * * * * * * * * * * * * * * * * * * * * * * * * * * * * * * * //

dimensions      [0 3 -1 0 0 0 0];

oriented        oriented;

internalField   nonuniform List<scalar> 
1300
(
3.75095
5.62643
-3.31122
3.75095
-7.76001
5.62643
-4.39929
4.39929
-0.328116
0.328116
1.87639
1.87457
-2.68958
2.68958
-2.03272
2.03272
-2.52154
2.52154
-5.24645
5.24645
-5.06947
5.06947
4.65186
-4.65186
-6.31437
6.31437
-0.938254
0.938254
-3.68658
3.68658
3.16959
-3.16959
-2.01101
2.01101
0.0779326
-0.0779326
-0.553469
4.30442
3.19748
3.19748
-2.00972
2.00972
-4.86944
4.86944
6.218
-6.218
5.29481
-5.29481
-1.98359
-2.47545
1.80702
-11.4795
-5.95299
-5.95299
-8.44036
8.44036
-2.81393
2.8125
2.94641
-2.94641
-1.77002
1.77002
-4.36292
-0.0363621
-4.36292
4.36828
0.0310112
4.36828
-0.439936
0.11182
-0.439936
4.00815
-4.00815
0.225063
0.103053
0.225063
3.06539
-3.06539
-1.87712
3.75351
1.87383
-1.8719
6.17632
-1.87905
3.75362
-6.01461
6.01461
-2.93417
0.244599
-2.93417
2.47836
0.211213
2.47836
-6.8494
6.8494
-2.08151
0.0487935
-2.08151
1.99555
0.0371669
1.99555
2.88193
-2.88193
-2.62817
0.106623
-2.62817
2.39304
0.128508
2.39304
0.353504
5.27293
-5.97993
8.79243
-5.27293
0.0264807
5.2083
0.0381498
5.2083
-5.10613
0.0366623
-5.10613
5.01277
0.0566965
5.01277
4.73612
-0.0842645
4.73612
-4.77106
0.119195
-4.77106
-3.36966
-4.04936
-6.46401
0.149644
-6.46401
-1.02959
0.0913331
-1.02959
0.823846
0.114408
0.823846
-3.68768
3.68768
-4.10798
0.421406
-4.10798
3.12396
0.0456302
3.12396
1.86849
1.88247
5.61944
-5.61944
2.44985
-1.97049
-0.0405184
-1.97049
-2.09018
-3.20463
2.09018
-0.079169
-0.143401
0.221334
-0.143401
3.15945
0.0380348
3.15945
2.23688
0.15616
-2.23688
0.227158
3.27946
-3.27946
1.3366
0.673121
1.3366
-5.56325
5.56325
4.9569
0.0558754
-4.9569
0.0874582
6.1568
0.0612026
6.1568
-6.19957
-0.0184326
-6.19957
2.52675
-5.0022
-2.63451
6.13357
0.1808
-6.13357
0.180574
2.91838
0.0280296
2.91838
-2.91877
2.91877
-2.98483
0.0384251
-2.98483
-2.1685
0.398477
-2.1685
1.47189
0.29813
1.47189
-4.26589
-0.097035
-4.26589
-4.25735
0.149365
4.25735
0.110928
1.1312
-1.1312
-0.573973
0.134037
-0.573973
-4.13195
-0.133937
4.13195
-0.123804
-3.89676
-0.11139
-3.89676
-3.02461
0.0397755
3.02461
0.040783
3.11291
0.0465436
-3.11291
0.047516
-1.87081
3.75328
-1.88014
3.75397
-5.63524
-0.379371
-5.63524
6.32535
-0.310741
6.32535
3.32765
0.358931
-3.32765
0.393471
2.30907
0.169293
2.30907
-6.81138
-0.0380274
-6.81138
6.83468
0.0147217
6.83468
2.17805
0.131019
-2.17805
0.0965411
1.96762
0.027929
1.96762
2.90232
-0.0203914
2.90232
-2.87587
-0.00606125
-2.87587
2.79105
-2.79105
2.71608
0.0749769
-2.71608
0.0879103
-11.133
11.1146
-0.0351799
-11.0979
5.17312
5.17312
4.16249
0.573631
4.16249
-4.99007
0.219017
-4.99007
2.69078
-5.32529
3.0902
-6.45987
4.65797
-16.1375
4.29131
-8.34067
6.70223
-6.70223
6.59191
0.110328
-6.59191
0.127895
-1.14867
0.119084
-1.14867
-3.08629
-0.601387
-3.08629
4.32905
-0.641371
4.32905
-3.02809
3.02809
-3.07741
0.0493213
3.07741
0.046549
1.95627
0.0113445
-1.95627
-0.0142137
0.165637
0.0594265
-0.165637
0.0222353
3.49409
-0.21463
3.49409
-3.08035
-0.199112
-3.08035
-1.24733
0.0986609
1.24733
0.0892651
-5.8133
0.250051
-5.8133
-11.1908
0.0929604
-11.1527
-6.10661
-6.10661
2.33376
11.1262
-2.89375
0.0178803
2.89375
0.0246284
2.97494
0.053146
-2.97494
0.0561731
-2.858
0.0669443
2.858
0.0607704
-2.54307
0.374574
-2.54307
-1.07164
1.07164
-1.2361
0.164462
1.2361
0.23579
1.40417
-0.272966
1.40417
0.704819
0.119027
-0.704819
0.130846
-3.79534
-0.101415
-3.79534
6.56046
-0.235112
6.56046
-2.96475
-0.115606
2.96475
-0.0624253
-0.0333201
11.1479
-5.1398
0.0336631
5.1398
-11.2091
11.2428
-3.21332
0.670248
3.21332
0.949174
5.28386
0.27939
-5.28386
0.293785
6.78554
0.0491375
-6.78554
0.0833102
-2.59393
-0.492362
-2.59393
-5.05389
-0.581348
5.05389
-0.724839
-11.4742
-0.205489
11.6796
-11.4175
6.01879
0.138009
-6.01879
11.3808
-1.03073
-0.100467
1.03073
0.0409064
1.732
-0.327833
1.732
3.69195
-0.197856
-3.69195
-0.103394
-6.71459
-0.096782
6.71459
-0.154131
-2.14905
-0.444884
2.14905
-0.417047
-4.26713
4.30516
1.9092
-2.38215
-2.62005
-5.58678
1.85184
1.90144
4.30169
-10.1281
-6.0094
-9.94754
7.2613
-6.96752
-9.23825
9.15399
7.9048
-8.01619
-5.78476
5.83131
6.48296
-6.44218
1.87883
1.87468
8.02454
-7.77995
-15.5875
15.2081
7.57373
-7.52493
15.7375
-15.7755
-17.8146
17.8637
-5.70805
5.81467
-6.74065
6.73458
-6.97694
6.91451
-2.83519
-3.62468
13.0866
-12.9369
8.60164
-8.64216
-8.62403
9.04544
3.3826
0.922559
3.42915
-1.88213
3.76096
-1.87149
3.78068
2.73501
-5.57019
2.59028
-5.21033
4.37397
4.22768
-4.2948
-1.29199
-5.92494
5.95297
-5.81316
5.87393
9.14773
-9.1841
-1.88518
3.75985
-1.8688
3.77024
-3.42501
-2.35975
3.37938
0.922315
8.05474
5.03184
-8.23554
-1.712
-8.04679
7.84893
-8.23409
8.03498
-0.433356
5.81826
-5.38491
4.43608
-1.56352
7.38178
5.69778
5.9168
5.86565
-5.58626
1.10186
-6.48677
-6.39931
-2.22568
2.35972
2.13963
-2.03657
6.15332
1.75148
6.02952
-5.76788
-2.24831
-5.86929
3.82054
2.01077
3.86986
4.07852
2.40444
4.1183
3.03041
-3.03599
0.00557427
-3.05666
6.08708
0.723864
-5.41641
-4.4941
4.97804
3.0465
5.18925
-5.5574
-2.22255
-5.16393
-9.52929
-6.05818
-10.1106
10.072
5.13612
9.76124
-11.9412
11.7871
4.8185
2.75523
4.85567
-4.95925
-2.56569
-4.86271
11.6322
-2.63844
-8.99376
-10.301
-7.51359
10.2863
5.4512
10.9412
6.92255
11.0245
4.41623
7.21597
-9.86743
2.35385
-3.86846
-1.83958
-3.78055
3.67606
2.13861
3.80457
-4.21762
-2.52303
-4.19974
-4.29593
-2.681
4.31633
2.41826
-4.41808
-3.816
4.53369
2.38082
4.03268
-10.0421
4.308
-7.93268
-9.17695
-3.75998
-9.04906
3.53706
2.60855
-6.14561
-2.03313
8.53545
-4.30778
7.24347
-5.19225
-3.44991
-5.20646
-6.88847
-1.73556
-6.73911
-8.87004
8.37768
-9.16606
8.52469
12.4964
-5.63642
-6.85996
-3.96847
-2.47371
3.92095
-0.491804
-3.71046
3.71603
0.050506
3.83119
4.75375
4.26194
-3.88437
-1.92879
-3.8282
3.82415
2.04978
3.8911
6.84464
2.30309
6.87566
-6.62081
-2.56329
-6.71784
9.03067
-8.63219
2.83184
-2.73318
5.40149
2.63348
-5.18686
-2.85993
6.20899
-3.2201
-2.98889
-12.1985
10.5244
1.67412
-4.81674
-0.380651
-0.458583
-5.487
-3.75126
5.3678
0.548996
11.0734
7.32213
-5.51171
5.76176
6.16793
6.22381
-0.175501
5.80083
-5.13058
5.2529
-2.61496
-2.63794
5.48222
-5.61615
-1.23563
-5.53307
4.29744
0.413364
1.44484
-1.22351
-1.76343
-0.462253
-1.63259
1.23741
0.902219
1.29683
0.959236
1.40049
-2.9555
0.524268
2.43123
-1.99626
-1.51231
-3.84168
-1.14447
4.98616
5.74407
2.10486
-5.64068
-0.228618
2.5131
-2.3987
-0.795128
-3.04656
2.24942
-3.04455
-3.66696
-2.092
5.75895
-3.3696
-0.458603
3.31645
0.553409
-3.82727
-2.09767
3.78884
0.329456
-3.12876
6.19142
-3.06266
-5.05755
2.5275
3.55958
4.53826
-4.78951
2.44777
2.34174
-1.22993
4.24602
0.943238
4.41531
-6.94423
4.72168
5.80729
3.23815
-6.16622
1.00229
-5.94194
8.5505
-7.37668
-1.17382
4.16837
4.38213
7.0537
5.44268
-5.66751
12.7212
-1.2071
-6.16958
7.14904
-3.91089
4.85281
-8.7637
-10.2955
4.1259
-9.12371
10.8968
-1.77312
-3.61849
-8.3227
12.7422
-1.20343
-11.5388
8.55781
-4.28949
-4.39834
8.68783
-6.92792
6.96403
-1.99434
-4.96968
-10.0891
-5.68638
10.1859
1.60116
-9.9302
12.2841
-2.71423
4.1282
0.727467
4.15613
3.30589
-5.48805
2.18215
3.62203
-5.61637
2.08148
-7.56953
-6.71649
12.0464
-5.32988
-10.4765
-9.49763
-0.978841
2.53224
9.75182
-9.45478
7.41188
2.0429
3.30031
0.590784
-3.37529
-0.405263
0.23504
4.51512
-4.75016
4.03961
4.19577
3.26551
1.24961
3.84563
2.10734
-3.87026
-0.32948
-4.1644
1.4834
-1.74614
-3.69453
5.17793
-4.06754
0.373009
-2.74399
-3.49722
6.24121
-4.58357
3.03532
3.1561
5.0851
-4.91321
1.41598
-2.39273
-2.52048
2.65156
-4.3977
1.99426
3.18368
4.37508
0.559074
5.86906
6.17731
-8.47761
0.544928
11.2091
-9.49715
2.46157
8.56291
-9.87345
0.37582
-8.67324
0.99735
-5.30513
-5.14826
5.19895
-6.9345
-3.56475
6.21806
0.657591
-6.32899
-0.410116
-6.02931
-2.84074
-6.47419
-3.04015
-6.12591
-8.70766
-1.65038
-7.05728
6.7273
-6.67501
-3.43563
7.39985
1.12484
-7.4041
7.30363
-7.48237
7.15454
0.0954436
3.62059
4.35739
1.88368
-2.39066
4.27434
-5.12244
7.42553
-8.72647
3.60402
4.20948
-6.77277
-4.51698
5.01723
4.01344
5.31536
8.87277
-10.3353
1.46253
-10.6382
11.9712
-1.333
-16.3932
5.75502
-7.52046
2.43356
0.398278
2.55264
0.542368
2.49755
-3.03992
-2.19081
-2.10154
-2.44189
-3.46513
5.90702
1.08611
-3.53186
2.44575
-3.56752
4.65363
-0.218662
-3.31319
5.26602
-2.76848
5.6643
-3.78619
1.87812
3.44051
5.75508
-2.31457
4.39519
-1.76171
1.92986
-4.24444
-1.53527
-2.95699
5.0956
-3.28422
3.65723
-0.345445
4.00268
-4.04728
0.827179
-0.781766
3.414
3.64116
4.31637
-3.06676
2.91696
-4.67867
-1.32748
-4.11959
-0.935917
-0.254172
-3.69509
3.94926
5.97109
-6.22526
-5.22949
9.51882
-4.28933
7.68628
-5.37698
-2.3093
-4.24761
-4.38458
3.87304
1.92779
9.61407
0.20858
-5.58556
-4.922
-3.97283
3.09618
2.15672
-1.72401
3.39813
2.18259
-0.737752
0.424746
0.872087
1.77955
-1.3548
0.329184
1.45036
-0.894322
1.69559
0.81751
-1.81462
0.182035
-1.33198
3.58141
1.09925
-2.00147
0.646666
0.972497
-3.58745
5.07108
-2.69495
-2.37613
6.04358
1.13903
-3.83398
4.39404
-3.98068
2.39793
-3.5424
-1.43605
-5.41673
-3.66524
-2.51732
4.96307
-3.38969
5.49456
1.29611
-5.26594
6.56205
-3.72932
1.63732
-3.04771
3.86522
-0.92431
-2.1234
2.90264
2.85631
-3.08415
0.0375967
-0.181509
2.40809
-2.5896
-0.63646
-2.63272
-4.57361
4.90307
-2.10517
4.55293
2.16917
-1.91726
6.47019
1.80866
-3.72592
-3.24889
-3.70749
-1.38418
3.15408
-0.571718
-4.29099
-5.5414
4.15997
0.255339
-7.05907
7.87772
-0.818648
-4.01256
-0.709118
4.87748
-6.08736
0.470985
-4.00588
3.87184
4.81508
5.07042
-11.3188
-0.220019
-6.18263
1.1217
-7.30433
5.50383
-3.53321
7.65911
-10.3128
6.87722
-9.18801
6.4853
-0.819036
6.2398
-4.05765
2.75396
-8.44034
-6.83918
5.55366
-2.79844
6.28113
-3.17516
9.45629
-5.88939
5.34126
4.11502
-1.03365
-4.17282
-5.33592
4.30228
0.00534172
4.16147
4.98035
-2.87302
4.65087
2.26985
-4.66258
-2.12785
-6.49601
1.83343
-3.33991
-1.92125
3.75468
3.16385
3.75464
1.2342
-3.34938
7.19613
-8.17497
-1.86626
-3.282
5.32155
-1.01927
3.43349
-6.71549
-1.87164
4.78492
-0.779852
-4.00507
0.851504
-4.41625
1.67535
-6.09161
5.25915
-5.66927
2.22176
-9.74223
-5.18234
-5.14143
-2.25806
-5.22431
-7.56137
5.30331
-1.80635
5.49728
-8.49273
7.71287
-3.47849
8.7818
-5.42435
-1.04984
5.8414
1.31314
10.0949
0.224837
-4.74182
-1.92261
3.8374
-1.91479
1.17357
-3.47025
0.367151
2.49354
3.55004
-6.79098
0.0182076
-4.72361
-3.91443
7.92787
5.60439
11.5755
1.24018
9.10735
-1.17948
10.3475
4.13588
4.37167
-2.98241
4.44494
0.966846
4.57087
-0.928129
2.80625
1.62451
1.71585
0.682848
2.30345
1.33771
3.13063
0.0907115
-2.01083
4.61824
-8.59106
-0.967324
-8.01743
1.13656
5.70515
-4.56859
2.92758
-0.770853
1.01278
-0.130891
-1.19442
1.32531
-2.76883
-1.93217
-0.481807
-1.70004
2.34671
1.88136
-1.8649
-0.903933
0.355002
-4.02025
3.1874
-3.1498
-0.293491
6.26856
-2.81712
0.227515
-1.17979
-2.40521
-2.86746
2.68542
6.17623
0.293969
3.11356
5.19704
3.09936
0.226347
3.88181
-5.65493
-3.68772
-5.87495
-0.371118
4.50637
1.76646
7.98536
5.88148
4.8622
-1.85329
-10.0283
6.50811
-2.06316
5.17511
-1.17004
-4.92157
5.05051
2.37502
-5.7081
0.0388357
-4.88273
-6.94589
-0.511707
8.22458
-9.58323
8.53339
5.69266
1.36462
-4.40092
-0.740511
4.23646
0.135213
10.4827
-1.12902
-6.70613
7.83515
-4.57613
3.60881
0.733944
2.66419
2.05925
1.2884
-5.41773
-9.98632
-2.06969
-1.51776
-4.44582
0.540333
-2.4217
6.21706
-2.60825
3.90776
5.2269
6.23968
-2.12795
-4.09731
6.41728
-2.50952
3.73016
)
;

boundaryField
{
    wall-4
    {
        type            calculated;
        value           uniform 0;
    }
    velocity-inlet-5
    {
        type            calculated;
        value           uniform -3.75095;
    }
    velocity-inlet-6
    {
        type            calculated;
        value           uniform -5.62643;
    }
    pressure-outlet-7
    {
        type            calculated;
        value           nonuniform List<scalar> 8(3.31122 7.76001 4.45904 9.67252 7.41903 5.16126 5.78098 8.94929);
    }
    wall-8
    {
        type            calculated;
        value           uniform 0;
    }
    frontAndBackPlanes
    {
        type            empty;
        value           nonuniform List<scalar> 0();
    }
}


// ************************************************************************* //
