/*--------------------------------*- C++ -*----------------------------------*\
| =========                 |                                                 |
| \\      /  F ield         | OpenFOAM: The Open Source CFD Toolbox           |
|  \\    /   O peration     | Version:  2206                                  |
|   \\  /    A nd           | Website:  www.openfoam.com                      |
|    \\/     M anipulation  |                                                 |
\*---------------------------------------------------------------------------*/
FoamFile
{
    version     2.0;
    format      ascii;
    arch        "LSB;label=32;scalar=64";
    class       volVectorField;
    location    "78";
    object      U;
}
// * * * * * * * * * * * * * * * * * * * * * * * * * * * * * * * * * * * * * //

dimensions      [0 1 -1 0 0 0 0];

internalField   nonuniform List<vector> 
918
(
(0.98516 -0.000508123 0)
(0.00501702 2.96625 0)
(0.0075398 0.885908 0)
(0.979705 0.00214518 0)
(-0.0121044 2.06357 3.7637e-20)
(-0.00705138 2.9488 -2.44335e-18)
(0.821442 1.16659 4.51337e-19)
(0.0972872 0.0662913 -1.45464e-20)
(0.999909 -0.000275387 0)
(0.0661456 0.734546 0)
(0.0155642 0.477047 0)
(0.731563 0.00549058 0)
(0.0111275 2.93038 0)
(0.00251456 2.79536 0)
(-0.0179481 3.14715 7.81846e-19)
(-0.0211458 1.9178 1.09364e-20)
(0.286503 0.0576712 1.01798e-18)
(0.189038 1.144 3.17685e-19)
(0.962714 0.00501634 0)
(0.00712097 0.449389 0)
(-0.0108871 0.0371682 -6.7603e-19)
(1.00197 -0.00497438 0)
(1.00023 -0.00978337 0)
(0.97574 -0.00643869 0)
(0.598386 0.0298603 0)
(0.0138035 2.64253 0)
(-0.0148823 2.91001 8.97062e-19)
(0.0112832 0.931012 0)
(-0.019457 1.18302 0)
(0.0135714 0.914611 0)
(-0.0146106 2.58781 0)
(-0.00103567 2.11721 -3.00598e-20)
(-0.0110664 1.89859 0)
(-0.0205953 2.98761 -8.77496e-23)
(-0.016681 3.00528 1.89874e-18)
(0.00209728 3.00016 0)
(0.871463 -0.00965724 0)
(0.401778 0.931377 1.80673e-19)
(0.807914 1.18023 -5.16986e-19)
(0.958898 1.02699 5.62161e-19)
(0.675673 1.27202 -1.04941e-19)
(0.675891 1.24566 6.0229e-19)
(0.125692 0.120356 1.41895e-20)
(0.132867 0.0572644 0)
(1.16533 0.565596 0)
(0.0946172 0.0892688 6.4019e-20)
(0.062574 0.045138 -6.64392e-20)
(0.919926 -0.00745843 0)
(1.00027 0.000162643 0)
(0.999909 0.000339363 0)
(1.00363 -0.00775748 0)
(1.00096 -0.000918609 0)
(1.00017 3.80603e-05 0)
(0.0728854 1.82629 -7.68761e-19)
(0.0324049 0.947588 0)
(0.0981081 0.814597 0)
(0.0144749 0.896502 0)
(0.0422297 0.652788 0)
(0.00681612 2.01514 0)
(-0.000407635 0.77711 0)
(0.0164259 0.498622 0)
(-0.00712506 0.766921 0)
(0.00843906 0.464068 0)
(0.842129 -0.0156594 0)
(0.842381 0.0271096 0)
(0.75838 0.00182352 0)
(0.801295 0.0285421 0)
(0.700468 0.0177374 0)
(0.0146794 3.00041 9.05325e-19)
(0.011479 3.00812 0)
(0.00609763 3.00273 0)
(0.0135416 2.99738 1.02643e-23)
(0.00795238 2.95847 -1.34554e-18)
(0.0145062 2.98201 0)
(0.0109051 2.90354 0)
(0.0241306 2.93084 2.05152e-24)
(0.0047607 2.82525 0)
(0.0303605 2.91672 0)
(-0.00474554 2.74568 0)
(0.304224 3.53896 0)
(-0.131543 3.61937 0)
(0.137145 3.23709 -7.27575e-19)
(-0.0139121 2.9762 0)
(-0.0259933 1.98559 0)
(-0.00680594 2.16961 -1.07866e-20)
(-0.0151172 1.92604 5.55787e-21)
(0.338426 0.13881 -3.53515e-19)
(0.317698 0.0340732 -3.43537e-19)
(0.293099 0.142533 -1.0584e-18)
(0.249843 0.0645255 -6.87496e-19)
(0.229704 0.985203 0)
(0.272644 1.29421 -3.69243e-19)
(0.366791 1.22916 6.16015e-19)
(0.987428 0.00857432 0)
(0.941845 0.00582115 0)
(1.0003 0.000581609 0)
(1.00286 0.00931023 0)
(1.00301 0.00847309 -2.74446e-18)
(0.991906 0.00969525 2.07251e-18)
(-0.0130865 0.76773 0)
(0.00895717 0.454303 0)
(-0.0509769 1.00825 0)
(-0.0297022 0.816282 0)
(0.00316484 0.454993 0)
(-0.0750667 0.0881302 2.09826e-19)
(0.0419701 0.0520753 0)
(0.993556 -0.00836859 0)
(0.954474 -0.00653405 0)
(0.744367 0.0290153 0)
(0.678903 0.0275985 0)
(0.660867 0.0245706 0)
(0.97257 -0.00712392 0)
(0.588259 0.0735085 0)
(0.455628 -0.00428066 1.54126e-18)
(-0.0373701 2.86114 6.58896e-19)
(0.040907 2.91002 0)
(0.0536209 2.88632 0)
(-0.00482155 2.70126 0)
(-0.0131086 2.98523 8.48404e-19)
(-0.0177899 2.89503 0)
(-0.0153953 2.98805 -2.63269e-18)
(-0.0132609 2.92518 9.01705e-19)
(-0.0329965 1.34989 0)
(-0.00538574 1.38002 0)
(-0.00703758 2.13491 5.40122e-22)
(-0.0060914 2.0969 0)
(-0.0232829 1.90564 0)
(0.9387 -0.00735845 0)
(0.857657 -0.00997147 0)
(0.86301 0.00505313 0)
(0.949667 -0.00778842 0)
(0.884135 -0.00819962 0)
(0.512994 1.12412 -2.28096e-19)
(0.56218 1.17507 0)
(0.366528 0.87642 3.36646e-20)
(0.309388 0.735146 0)
(0.921173 1.06311 -1.55318e-19)
(1.04048 0.87302 3.17258e-19)
(0.359754 1.3562 0)
(0.527825 1.32751 0)
(0.549754 1.26598 0)
(0.121443 0.185112 -3.02887e-19)
(0.160734 0.11618 0)
(0.173419 0.0901939 1.89206e-19)
(1.01126 0.927294 0)
(1.0858 0.781023 0)
(1.1111 0.722756 -2.53672e-19)
(1.14469 0.625024 0)
(1.19493 0.408332 5.77329e-20)
(0.957805 -0.00868241 0)
(0.962541 -0.0100206 0)
(0.901802 -0.00798966 0)
(0.984211 -0.0091398 0)
(0.974726 -0.00932202 0)
(0.937153 -0.00637512 0)
(1.00019 0.00234109 0)
(1.0009 0.00141691 0)
(0.999909 0.000856143 0)
(0.0355046 2.07272 4.26182e-19)
(0.11859 1.76938 0)
(0.0181088 2.18626 6.54251e-19)
(0.0459739 1.88048 -5.44732e-19)
(0.106741 1.1492 -2.60152e-19)
(0.0496719 1.02807 0)
(0.142801 0.98095 0)
(0.00832607 0.849837 0)
(0.0217609 0.589571 0)
(-0.000888398 2.24152 -7.77686e-22)
(0.0159434 2.01907 0)
(-0.001702 2.24387 -2.62726e-20)
(0.0082512 2.02465 3.93479e-20)
(0.00556414 0.817816 0)
(0.0043633 0.792559 0)
(0.0145048 0.539573 0)
(-0.00961877 0.760712 0)
(0.00506951 0.453486 0)
(0.93883 0.00987427 0)
(0.850899 -0.0145908 0)
(0.9279 0.000495238 0)
(0.842881 -0.0128634 0)
(0.810198 -0.000525639 0)
(0.898976 0.0214429 0)
(0.874904 0.0249581 0)
(0.784114 -0.0010019 0)
(0.00556654 3.06476 -8.42408e-21)
(0.0167011 3.05776 0)
(0.0146518 2.969 0)
(0.00864005 2.87618 0)
(0.919249 3.9503 0)
(1.23216 3.28417 9.24322e-19)
(0.0686678 3.06861 0)
(-0.029598 2.90188 0)
(-0.00956431 1.40285 0)
(-0.0315978 1.69809 0)
(-0.0181956 1.53504 0)
(-0.0302743 2.5468 -8.77651e-21)
(-0.0141887 2.23947 0)
(-0.0200787 2.38668 0)
(-0.00108596 1.9524 6.72852e-22)
(-0.00337717 2.24019 -9.99086e-21)
(-0.00527761 2.20424 -5.82572e-21)
(-0.00899884 1.93737 0)
(0.390199 0.122553 5.4025e-19)
(0.366294 0.0210644 -5.30126e-19)
(0.258507 1.5854 0)
(0.278093 0.758347 -3.15637e-19)
(0.176879 1.6727 -1.04669e-18)
(0.225738 1.22109 1.04896e-18)
(0.901958 0.00618513 0)
(0.967356 0.0111866 0)
(0.974524 0.010822 0)
(0.923261 0.00636956 0)
(-0.0124053 0.759326 0)
(-0.0132125 0.760906 0)
(0.0061424 0.447114 0)
(0.0846538 0.066434 5.8974e-19)
(0.0795153 0.0449098 -6.95986e-19)
(0.0398131 0.03728 0)
(1.10153 0.0870388 2.69375e-20)
(1.08354 0.0399783 0)
(1.01487 0.0403829 0)
(0.908455 -0.00510753 0)
(0.443781 0.103914 0)
(0.503493 0.0870159 -2.46337e-18)
(0.410025 0.0145986 9.21475e-19)
(0.00857866 2.98044 7.08258e-19)
(-0.0330647 2.86486 4.60167e-20)
(0.00363325 3.05025 -1.7847e-20)
(0.0202366 3.04334 6.35166e-19)
(-0.0149999 2.99659 2.96244e-20)
(-0.012957 2.9495 -1.19196e-22)
(-0.0172608 3.0119 -5.4867e-19)
(0.0149081 3.02365 3.97193e-19)
(0.00741196 3.03686 -6.28917e-19)
(0.934224 -0.00115193 0)
(0.939625 -0.00315657 0)
(0.846225 -0.00945573 0)
(0.956423 0.0121219 0)
(0.942385 0.0136766 0)
(0.881505 0.00544607 0)
(0.91614 0.0179268 0)
(0.925352 0.0156569 0)
(0.837686 0.00169033 0)
(0.715303 1.4009 3.86844e-20)
(0.748585 1.50947 0)
(0.180315 0.313276 7.05776e-20)
(0.229734 0.669414 5.6755e-19)
(0.262291 0.719488 -3.31706e-19)
(0.262229 0.518249 6.60294e-19)
(0.346953 0.812915 1.59382e-18)
(0.14114 0.230948 3.76166e-19)
(0.248071 0.145168 7.27229e-19)
(0.20527 0.139013 1.88439e-19)
(0.214365 0.073806 3.56846e-19)
(1.18385 0.466398 6.76721e-20)
(1.19873 0.258363 6.27448e-20)
(0.0102909 2.23483 2.51308e-19)
(0.0402455 1.94858 0)
(0.971636 0.029614 0)
(0.943981 0.0140812 0)
(0.869965 -0.0177636 0)
(0.0113 3.07427 0)
(0.0195968 2.944 1.15993e-18)
(0.0164129 2.9563 0)
(0.00641265 2.85065 -1.1507e-18)
(0.00625554 3.09072 2.81187e-19)
(0.00723958 3.08265 0)
(0.781281 1.81067 -1.5802e-19)
(1.23999 2.48561 4.00781e-19)
(0.763245 1.94991 -1.22482e-18)
(0.0196186 2.98017 -6.09344e-19)
(0.035002 2.9988 0)
(-0.0345039 2.8764 0)
(-0.00379484 2.22357 -1.30668e-20)
(-0.00291858 2.24457 1.67564e-20)
(0.00160904 1.98705 -7.16874e-21)
(0.2783 1.39493 1.0243e-18)
(0.239755 0.55376 -7.02284e-19)
(0.0636948 1.99766 7.60455e-19)
(0.135068 1.88397 -9.0826e-19)
(0.180083 1.51238 9.52173e-20)
(0.00162227 3.1188 -1.74982e-18)
(0.0155706 3.11814 1.87995e-18)
(-0.00913858 2.98112 7.77981e-19)
(-0.00383855 2.97738 -7.33959e-19)
(-0.0209589 2.881 -7.92355e-19)
(0.00858956 3.09992 -2.08978e-18)
(0.0022923 3.10597 2.0445e-18)
(0.283151 0.696216 0)
(0.249216 0.68483 -1.18152e-18)
(0.0959075 0.225007 5.2455e-19)
(0.358308 0.940233 1.11377e-18)
(0.196202 0.277135 -1.71725e-18)
(1.18926 0.176118 6.19327e-20)
(1.19905 0.31324 0)
(1.17766 0.123519 -4.85586e-21)
(0.00155856 2.25317 -1.43133e-21)
(0.00495132 2.24475 0)
(0.0245452 1.98449 0)
(0.339959 1.30395 -3.67686e-19)
(0.375241 1.15199 -8e-19)
(0.210926 0.37942 1.42681e-18)
(1.00588 -0.0108235 0)
(1.00767 -0.00763105 5.06258e-19)
(-0.0278736 1.33079 0)
(-0.0404922 1.3309 0)
(1.00221 0.00351662 1.81293e-21)
(1.00367 0.00947473 1.03375e-18)
(-0.0187209 2.53148 1.11235e-20)
(-0.023904 2.57408 0)
(0.0339088 3.17648 4.01599e-19)
(0.389418 3.4821 0)
(1.17841 0.66715 -5.5499e-20)
(1.01284 0.013145 -2.12578e-21)
(1.02136 -0.0102693 0)
(1.0017 0.000133434 7.95469e-23)
(0.112832 1.37109 0)
(0.143263 2.56657 0)
(0.0343031 1.31732 0)
(-1.49385e-05 2.61774 2.52417e-20)
(-0.0213965 2.57438 6.17169e-22)
(0.999311 0.0313107 2.52041e-21)
(1.0633 0.00488151 0)
(1.09802 0.025481 0)
(-0.0300273 1.74168 0)
(-0.0183122 2.57493 0)
(-0.00862615 1.31908 0)
(0.311423 1.48367 -1.68707e-19)
(1.01131 -0.00960859 0)
(1.0094 -0.0149143 0)
(1.00237 0.000758101 6.47018e-19)
(1.00547 -0.00479505 -7.60446e-19)
(1.00118 -0.000964118 0)
(-0.0170534 1.47029 0)
(-0.00722372 1.38273 0)
(-0.00936617 1.42787 0)
(-0.0126372 1.30606 0)
(-0.0233855 1.293 0)
(-0.0149267 1.27661 0)
(1.0351 -0.00599853 0)
(1.01958 0.0158077 -9.50133e-22)
(0.823956 1.27612 2.62755e-19)
(1.00223 0.000325692 -6.4448e-19)
(1.00406 0.00526604 7.54598e-19)
(1.00118 0.00207872 0)
(1.0127 0.0103836 6.41487e-19)
(1.00798 0.00831859 -7.77263e-19)
(1.00856 0.0146943 0)
(-0.0234369 2.60243 0)
(-0.0255451 2.58173 -2.03745e-20)
(-0.0227952 2.59599 1.44513e-20)
(1.23949 0.269699 5.76784e-19)
(1.16369 0.0877396 0)
(0.0391323 3.07792 -9.00754e-19)
(0.0650883 2.8566 -6.54569e-20)
(0.137755 3.19157 1.3809e-18)
(0.132804 3.21937 -1.92915e-19)
(0.132103 3.22976 0)
(0.0196496 3.13727 2.32263e-19)
(0.074055 3.15975 8.88098e-19)
(0.0668797 3.18482 -4.37882e-19)
(0.0218578 3.13001 0)
(0.558312 0.282768 0)
(0.496866 0.303528 0)
(1.15054 0.703347 1.24518e-19)
(1.14366 0.824802 -1.063e-19)
(1.20624 0.590096 0)
(1.23338 0.523764 0)
(1.016 0.0133941 -1.19572e-18)
(1.01498 0.0142429 1.50115e-18)
(1.02542 -0.00978228 0)
(1.02348 -0.0118323 0)
(1.00642 0.00265719 0)
(1.01041 0.00375894 0)
(1.00458 0.00187182 0)
(1.00978 0.00626698 0)
(1.0078 0.00597023 0)
(1.00451 0.00473165 0)
(0.101126 1.36955 0)
(0.0985176 1.33218 0)
(0.13188 1.40602 0)
(0.150086 1.41058 0)
(0.145326 2.59173 0)
(0.184884 2.66227 -4.21925e-19)
(0.101605 2.64677 0)
(0.0852943 2.64975 1.96712e-19)
(0.0388628 2.67267 -1.45103e-19)
(0.0214663 1.33178 0)
(0.0299398 1.25021 0)
(0.024353 1.34158 0)
(0.0471403 1.27085 0)
(0.00367411 1.98187 6.4728e-21)
(-0.0202476 2.60225 -2.31817e-20)
(-0.008099 2.65906 9.30103e-21)
(-0.0179531 2.67835 0)
(-0.0231097 2.60774 3.14798e-21)
(-0.0231866 2.60269 1.79929e-20)
(0.0124498 1.97985 -1.43018e-21)
(-0.00771841 2.38912 3.10991e-20)
(-0.0132762 2.41227 -1.05486e-20)
(1.01251 0.0396586 1.21052e-18)
(1.00498 0.0208407 -1.50679e-18)
(1.00442 0.0469993 -1.23306e-18)
(0.978429 0.0385386 1.55193e-18)
(1.06451 0.00868306 0)
(1.0496 -0.00812799 0)
(1.09504 0.0356164 0)
(1.07471 0.0132575 0)
(1.0725 0.000892109 0)
(1.14104 0.0844822 0)
(1.11255 0.0453325 0)
(1.11664 0.0330477 0)
(-0.0256065 2.42504 1.41705e-21)
(-0.0148592 2.01184 0)
(-0.0172598 2.21223 0)
(-0.0202395 2.59553 -1.25147e-20)
(-0.0174311 2.60572 2.59261e-22)
(0.00200251 1.58254 -3.945e-20)
(-0.00822457 1.51045 4.02163e-20)
(-0.0182227 1.40016 0)
(-0.0215631 1.40658 0)
(-0.0282833 1.4011 0)
(-0.00610027 1.32046 0)
(0.00718112 1.24049 0)
(0.387405 1.50113 2.74859e-19)
(0.430666 1.50173 1.45648e-19)
(0.597175 2.44223 -2.40346e-19)
(0.397636 2.53961 7.06768e-19)
(0.3488 2.04947 7.15588e-20)
(1.0211 -0.00808684 0)
(1.01552 -0.00973139 0)
(1.01493 -0.0154985 0)
(1.0074 -0.00105059 0)
(1.00493 -0.000902264 0)
(1.00779 -0.00466954 0)
(1.00928 -0.00358304 0)
(1.01424 -0.00434433 0)
(1.0203 0.0165241 1.17175e-18)
(1.01749 0.0155314 -1.49841e-18)
(1.02064 0.0187835 -1.18151e-18)
(1.01805 0.0171499 1.48011e-18)
(0.787148 1.32662 0)
(0.722582 1.37767 2.48811e-19)
(0.900147 1.22671 1.00261e-19)
(0.946047 1.17244 -1.33427e-19)
(1.15343 2.59674 2.81682e-19)
(0.764627 0.123024 5.99993e-19)
(1.16443 0.110562 0)
(1.21407 0.196502 -4.64348e-19)
(1.20166 0.156666 -1.98007e-20)
(1.00578 0.158878 0)
(0.12646 2.95841 5.25639e-19)
(0.102444 2.86392 -1.14231e-18)
(0.0079024 2.37716 7.60766e-19)
(0.105233 -0.176759 -3.13101e-19)
(0.33436 3.41252 -2.17332e-19)
(0.18969 3.30766 0)
(0.23391 3.34771 2.83045e-19)
(0.237386 3.03067 -1.76272e-18)
(0.330729 3.18877 0)
(0.00609292 3.12108 4.53718e-20)
(0.015525 3.12985 -5.35895e-19)
(0.0141883 3.12595 7.88726e-19)
(0.0345883 3.13993 0)
(0.0330927 3.1501 0)
(1.2082 2.59386 0)
(0.549765 0.797934 -5.26634e-19)
(1.06996 0.997332 -1.16815e-20)
(1.0053 1.08149 0)
(0.85892 0.975956 -1.08616e-19)
(1.09673 0.898523 2.78086e-20)
(0.291628 0.310898 -8.24142e-19)
(0.643583 0.326335 -1.67233e-20)
(0.526506 0.219644 4.04593e-19)
(0.519407 0.337374 2.90294e-20)
(0.408383 0.267725 -1.16417e-18)
(0.597361 0.3265 0)
(0.711471 0.431021 6.60741e-19)
(0.708555 0.431684 0)
(0.560139 0.34318 0)
(0.468517 0.242713 0)
(0.832464 0.629154 4.05997e-19)
(1.24086 0.292254 -4.85044e-19)
(1.24147 0.431812 0)
(1.24953 0.37187 0)
(0.672353 0.195763 6.20987e-19)
(0.877163 0.560274 -3.69944e-19)
(0.776926 0.537933 6.6086e-19)
(0.963493 0.45175 -7.31061e-19)
(1.01905 0.0150447 8.03553e-19)
(1.01745 0.0144016 -8.07693e-19)
(1.01588 0.0152638 0)
(1.03657 -0.00553967 0)
(1.02997 -0.0083299 -7.57221e-19)
(1.02802 -0.0119285 7.49694e-19)
(1.02491 0.0107516 0)
(1.02335 0.0146153 0)
(1.01141 0.00419289 0)
(1.01417 0.00919493 0)
(1.01516 0.00423239 0)
(1.01426 0.0029304 0)
(0.0722468 1.35312 0)
(0.0797158 1.29864 0)
(0.148478 1.38748 8.88501e-21)
(0.282074 1.482 8.96617e-20)
(0.177188 1.45271 1.88535e-19)
(0.209708 1.45798 -3.07444e-19)
(0.17732 1.41265 0)
(0.136159 1.59955 -7.02105e-20)
(0.12023 1.57923 0)
(0.344606 1.99848 -1.04055e-19)
(0.341287 2.33566 6.12623e-19)
(0.196502 1.46597 6.12083e-20)
(0.269443 1.39896 2.35663e-20)
(0.202443 1.39188 -1.90274e-20)
(0.279044 1.34188 -1.03585e-19)
(0.24257 1.5785 0)
(0.269636 1.61526 1.12624e-19)
(0.0307052 2.25604 -2.82113e-20)
(0.0438389 2.6619 0)
(0.0665689 2.39258 1.34673e-19)
(0.0633095 2.41341 0)
(0.0697914 2.6634 -2.18004e-19)
(0.0493769 2.69211 0)
(0.0285051 1.44891 3.80559e-20)
(0.0359319 1.49597 0)
(0.0335252 1.41403 0)
(0.0279957 1.42106 -4.29447e-20)
(0.000743942 2.64536 -1.69014e-20)
(0.0298498 2.69112 1.62478e-19)
(0.0105462 2.71617 1.14146e-21)
(0.00476555 1.83973 -7.9095e-21)
(-0.00184368 1.69396 -5.1287e-21)
(0.0166124 1.30966 0)
(0.0248653 1.22473 0)
(0.0454951 1.59623 -3.08146e-20)
(0.0348262 1.47604 -3.67681e-20)
(0.0384998 1.53873 4.59441e-20)
(0.0405039 1.61984 0)
(-0.0296169 2.2657 1.02284e-19)
(-0.0306707 2.54219 -4.25313e-20)
(-0.0167725 2.44033 4.75523e-21)
(-0.0027495 1.85466 9.58236e-21)
(-0.0258509 2.49286 3.91971e-21)
(-0.0205146 2.43735 -5.86233e-21)
(1.0188 0.0221304 -8.03066e-19)
(1.01569 0.0284019 8.06193e-19)
(1.01264 0.0178773 0)
(1.00957 0.0713246 1.12937e-18)
(0.991844 0.0618178 -1.26109e-18)
(0.950993 0.056845 1.41024e-18)
(1.01358 0.111963 -1.50353e-19)
(1.04303 -0.00550972 0)
(1.05148 -0.00107915 7.21976e-19)
(1.03933 -0.00967841 -7.23429e-19)
(1.07234 0.0432757 -4.29335e-20)
(1.06523 0.0244268 3.70343e-19)
(1.06299 0.0574866 0)
(1.05427 0.0508755 -1.33205e-19)
(1.03198 0.0422167 0)
(1.02649 0.0389132 0)
(1.02801 0.0139377 0)
(1.02399 0.0165894 0)
(1.04021 0.0333508 2.74354e-19)
(1.03879 0.0271377 -6.06578e-19)
(1.05154 0.0349353 -2.90741e-19)
(1.04832 0.0351208 -3.20272e-19)
(1.07177 0.0658232 6.25002e-19)
(1.09738 0.0536767 0)
(1.10684 0.0980964 0)
(-0.0253526 2.27047 5.68149e-20)
(-0.0247957 2.0177 1.22498e-21)
(-0.0209043 2.02507 0)
(-0.0265862 2.43891 -5.65529e-20)
(-0.0218747 2.39533 -2.5784e-21)
(-0.0327776 2.46592 5.89957e-21)
(-0.0205289 2.61507 -1.59835e-20)
(-0.0231394 2.55639 3.47793e-22)
(-0.0218477 2.50838 -4.5349e-21)
(-0.0156234 2.60873 1.24629e-20)
(-0.02066 2.61086 -1.36123e-20)
(-0.00703216 1.51009 -8.95631e-22)
(0.00249155 1.63005 -3.84525e-20)
(0.372455 1.45011 -1.16177e-19)
(0.372415 1.38323 3.72838e-20)
(0.663192 1.42762 -2.40669e-19)
(0.529649 1.49449 -1.43063e-19)
(0.5878 1.46041 0)
(0.592909 2.41934 2.0686e-19)
(0.66148 2.41527 3.37474e-19)
(0.410886 2.50866 8.81495e-20)
(0.402162 2.53269 -6.07003e-19)
(0.509821 2.47332 6.1354e-19)
(0.552964 2.45603 0)
(0.487501 2.51395 -5.58666e-19)
(0.24808 2.58601 1.14009e-18)
(0.354466 2.55803 -7.70648e-20)
(0.283595 2.64774 -1.58282e-18)
(0.948159 2.37223 7.28774e-19)
(0.83802 2.37782 0)
(1.01108 0.00054761 2.62481e-20)
(1.01537 -0.0053432 -2.12903e-20)
(1.01769 -0.00344266 -3.88844e-19)
(1.01506 -0.000801425 3.90959e-19)
(1.01248 0.00130241 0)
(0.650464 1.29191 0)
(0.674542 1.1858 0)
(0.788881 1.10484 0)
(0.667743 1.14909 0)
(1.18359 2.61019 5.99605e-20)
(1.07151 2.35766 0)
(0.832712 2.15927 3.86963e-21)
(0.822898 2.42632 0)
(0.921152 2.52051 -4.23321e-19)
(0.956333 2.47663 2.81562e-19)
(0.796119 0.184454 0)
(0.736495 0.156917 1.62879e-19)
(0.905452 0.152826 9.48621e-19)
(0.821487 0.156117 -3.54829e-19)
(0.776061 0.0905221 -1.09671e-18)
(1.08322 0.243673 -8.90692e-19)
(1.00004 0.307805 -1.8061e-20)
(0.927004 0.311736 8.58404e-19)
(1.007 0.237254 7.21314e-19)
(0.947206 0.201265 -1.25475e-18)
(0.908306 0.205621 1.56999e-19)
(0.9468 0.273115 -3.32775e-19)
(0.924702 0.232107 0)
(0.996042 0.198211 6.18647e-19)
(1.04735 0.196576 0)
(1.04538 0.225159 0)
(1.10801 0.122543 2.89559e-19)
(1.0723 0.182782 -1.51826e-20)
(1.07652 0.243595 -1.5757e-19)
(1.10181 0.209239 0)
(1.02147 0.0467621 6.18383e-19)
(1.03959 0.0600872 7.72022e-19)
(1.03368 0.0454915 -6.14506e-19)
(1.04243 0.0681759 -5.18036e-19)
(1.01805 0.0762495 -7.95825e-19)
(0.984404 0.161231 0)
(0.989051 0.106572 0)
(0.965773 0.0769011 -5.01711e-19)
(0.904078 0.098451 1.99783e-19)
(1.04029 0.108798 7.15847e-19)
(1.06947 0.125945 -8.35319e-19)
(1.07676 0.158614 7.45965e-19)
(1.03177 0.153435 0)
(1.07495 0.113268 0)
(1.05378 0.0939623 -3.42411e-19)
(1.04394 0.0996293 -5.84014e-19)
(0.578531 1.05062 1.41189e-19)
(0.602195 1.37301 -4.26916e-20)
(1.15356 2.72572 -2.29833e-19)
(1.21887 3.06831 2.71939e-21)
(1.24505 2.70887 -1.26472e-19)
(1.27312 2.6919 -3.00155e-20)
(1.20023 2.332 -1.12617e-20)
(1.20667 2.97213 -9.60581e-20)
(1.22701 2.93774 2.38212e-19)
(1.20877 3.2209 -1.41466e-19)
(1.36802 2.95144 1.95434e-19)
(1.35619 2.86938 0)
(0.569472 0.807263 -5.05852e-20)
(0.102186 1.21615 5.68036e-19)
(0.56478 0.330041 5.40567e-19)
(0.402638 0.0751908 5.82238e-19)
(0.460125 0.309881 6.60805e-19)
(0.547044 0.425553 -1.07629e-18)
(0.550036 0.420167 8.81668e-19)
(0.45681 0.29096 -3.34379e-19)
(0.318381 0.220114 7.4923e-19)
(0.700454 0.272796 -3.59033e-19)
(0.656841 0.294239 0)
(0.586847 0.208085 6.10258e-21)
(0.745972 0.513156 3.58181e-19)
(0.728253 0.484164 -1.30207e-18)
(0.625184 0.446485 9.50939e-21)
(0.61819 0.437339 0)
(0.698286 0.717654 3.95033e-19)
(0.861244 0.782278 3.91088e-19)
(0.784866 0.864485 -4.57728e-19)
(0.906376 0.819616 -1.52351e-19)
(0.937103 0.864751 -3.65938e-20)
(0.944095 0.864382 3.74754e-20)
(0.871906 0.664772 -6.72465e-19)
(0.951914 0.717498 1.41454e-19)
(1.01162 0.731975 0)
(1.00239 0.708306 -1.91045e-19)
(1.02989 0.348736 2.10861e-19)
(1.15145 0.309085 2.85918e-19)
(1.07141 0.281185 3.63994e-19)
(1.02073 0.381588 -4.29132e-19)
(1.06963 0.443873 0)
(1.12589 0.423793 0)
(0.920868 0.384815 1.13987e-21)
(0.837304 0.320176 0)
(0.88707 0.318789 4.05707e-19)
(0.91001 0.320072 -8.47115e-21)
(0.958644 0.455462 2.03632e-18)
(0.920347 0.510749 5.22739e-19)
(0.924455 0.477505 -5.58001e-19)
(0.838632 0.466176 5.99266e-19)
(0.823614 0.461365 3.59382e-19)
(0.793502 0.444463 -3.52837e-19)
(1.02745 -0.000144699 6.47751e-19)
(1.02004 0.000141138 0)
(1.01857 0.00106781 4.22382e-19)
(1.02177 -0.00146656 -9.56797e-19)
(1.02241 0.00461185 4.64823e-19)
(1.02031 0.0116818 -9.73376e-19)
(1.02123 0.0110596 0)
(1.02039 0.0113184 -2.02881e-19)
(1.01592 0.00793443 5.08999e-19)
(1.01655 0.0107357 -2.54e-19)
(1.01727 0.0100833 1.86996e-19)
(0.035787 1.32958 0)
(0.0423545 1.38502 0)
(0.052642 1.32956 0)
(0.0605916 1.27651 0)
(0.0756523 1.40195 -5.02927e-20)
(0.0859977 1.3677 2.20449e-20)
(0.114255 1.54863 -1.42438e-20)
(0.107973 1.38982 -5.24698e-21)
(0.0404318 1.48101 2.22809e-20)
(0.0441689 1.47471 -1.71567e-20)
(0.0684826 1.38929 -1.1084e-20)
(0.0610227 1.39015 4.74726e-20)
(0.0552705 1.36728 7.07717e-21)
(0.0457627 1.39129 4.18239e-21)
(0.107395 2.35996 -1.48759e-19)
(0.0961453 2.40887 0)
(0.169192 2.03373 1.08472e-19)
(0.114775 1.70282 3.96599e-20)
(0.234594 2.03155 -8.96012e-20)
(0.199387 2.42227 0)
(0.262063 2.37217 -6.0538e-19)
(0.302187 2.36987 4.27638e-19)
(0.228541 1.9911 -2.49637e-19)
(0.154864 2.14998 1.69322e-19)
(0.141537 2.25661 0)
(0.0182197 1.87787 1.01135e-20)
(0.000681013 2.38453 -2.80226e-20)
(0.0059698 2.14223 0)
(0.0114772 2.44869 -1.36894e-20)
(0.0291824 2.29127 6.75698e-21)
(0.0173375 1.42874 -8.08733e-21)
(0.0139393 1.41048 1.3542e-19)
(0.0131166 1.4184 -4.46049e-20)
(0.0225077 1.42411 -3.77644e-20)
(0.0265697 1.45277 0)
(0.00879202 1.40147 0)
(0.000279914 1.306 -5.70534e-20)
(0.00396172 1.39435 1.63795e-20)
(0.00935701 1.39306 0)
(0.00889488 1.29819 -4.33856e-20)
(0.018077 1.2131 8.74561e-20)
(1.04084 0.0121591 0)
(1.0471 0.00843171 -6.77535e-20)
(1.03892 0.0227016 -4.88743e-19)
(1.04863 0.0213568 0)
(1.05246 0.0211648 0)
(1.03653 0.0124093 -6.80006e-21)
(1.03119 0.0122768 7.85729e-19)
(1.03174 0.0173159 9.52364e-19)
(1.02567 0.0212625 0)
(1.02261 0.021756 0)
(1.03535 0.0262671 4.87564e-19)
(1.02605 0.0280428 0)
(1.02395 0.0278691 0)
(-0.0180082 2.02247 0)
(-0.000682553 1.66017 -4.45243e-21)
(-0.00485565 1.76469 -3.11856e-20)
(-0.00330791 1.40098 0)
(-0.00732515 1.56488 -2.1982e-20)
(-0.0107635 1.47729 1.34328e-20)
(-0.00835949 1.41679 0)
(0.388116 1.6379 0)
(0.375247 1.30907 -7.357e-20)
(0.300476 1.33985 0)
(0.426955 1.30785 8.81195e-21)
(0.477943 1.47223 0)
(0.458235 1.4166 2.44129e-20)
(1.03616 2.67226 -1.54026e-20)
(0.968433 2.40069 -9.15867e-19)
(0.921814 2.18976 1.02588e-18)
(0.852104 2.36966 2.42342e-19)
(0.847461 2.48138 0)
(0.917153 2.47747 0)
(0.931513 2.36576 0)
(0.91045 2.35536 -9.4632e-19)
(0.68607 2.44461 -3.95222e-19)
(0.79937 2.43402 -9.79286e-20)
(0.809628 2.40814 7.43683e-20)
(0.695292 2.38821 0)
(0.800586 2.38351 0)
(0.758639 2.39712 -3.68956e-19)
(0.766942 2.47111 0)
(0.63584 1.09427 0)
(0.479822 0.894078 -5.18275e-19)
(0.571643 0.941013 -3.27628e-20)
(0.51857 1.02912 0)
(0.519086 0.970491 7.7553e-19)
(0.805251 0.887051 -1.29183e-19)
(0.812966 1.02267 0)
(0.788403 0.989343 1.84003e-19)
(0.673016 1.03436 0)
(0.674034 0.935407 0)
(1.16273 2.74914 -2.31039e-19)
(1.14017 2.8125 -9.83988e-20)
(0.927899 2.32539 1.02773e-19)
(0.895743 2.30508 -8.39666e-20)
(1.12843 2.72211 0)
(1.08237 2.69148 1.01007e-19)
(1.08812 2.47547 -3.14129e-19)
(0.982741 2.22906 -3.02384e-20)
(0.490818 1.3252 0)
(0.507085 1.05695 -1.24425e-19)
(0.579114 1.16761 0)
(0.84953 0.251323 0)
(0.756453 0.200719 0)
(0.662567 0.155223 0)
(0.841862 0.252309 -6.31998e-19)
(0.725995 0.245988 3.73919e-19)
(0.921862 0.0914279 -4.11763e-19)
(0.924597 0.133352 0)
(0.912858 0.142343 1.77912e-19)
(0.848811 0.118614 7.1133e-19)
(0.812909 0.0795353 -4.45786e-19)
(1.15365 3.34566 -7.14654e-19)
(1.20294 3.26528 0)
(1.15124 3.37484 -1.4849e-18)
(0.639763 3.53665 1.25903e-18)
(0.860338 3.10588 6.93644e-20)
(0.524138 0.788332 6.0759e-19)
(0.422119 0.785943 0)
(0.300957 0.356252 -1.47792e-19)
(0.480738 0.646214 8.54611e-19)
(0.571586 0.336909 -1.91375e-19)
(0.519295 0.45972 2.28479e-19)
(0.677151 0.513713 4.84227e-19)
(0.721372 0.55573 0)
(0.670572 0.569602 0)
(0.638276 0.524554 0)
(1.01242 0.618872 8.67731e-20)
(0.926162 0.560253 -5.09066e-19)
(0.95206 0.591398 3.82816e-19)
(0.98105 0.531597 -3.94628e-19)
(1.08982 0.498526 0)
(1.09843 0.590131 -9.56456e-20)
(0.857757 0.418247 -8.27447e-19)
(0.855294 0.405916 -1.02662e-18)
(0.787865 0.400693 6.28073e-19)
(0.796828 0.389291 -6.387e-19)
(0.843863 0.34465 -5.18889e-19)
(0.790503 0.341053 6.34307e-19)
(1.02675 0.00620557 -4.94014e-19)
(1.02646 0.00642562 1.00488e-18)
(1.02954 0.000317932 6.27676e-19)
(1.03375 0.00122492 -7.56009e-19)
(1.03392 0.0093652 0)
(1.03018 0.010052 -1.23029e-18)
(0.064 1.63845 1.85227e-20)
(0.0523826 1.59062 0)
(0.0913884 1.6879 1.23644e-19)
(0.0985735 1.66898 -1.09422e-19)
(0.0920963 1.54971 2.54795e-20)
(0.0912287 1.55154 0)
(0.0123338 1.69387 0)
(-0.00418043 1.50903 9.71427e-21)
(-0.00246255 1.45503 -8.73619e-21)
(-0.00850825 1.56194 5.33485e-21)
(0.00229171 1.88602 1.41233e-20)
(-0.00998925 1.9393 -3.17128e-21)
(0.496593 1.35378 -2.78235e-19)
(0.490243 1.35352 3.05838e-19)
(0.454604 1.30333 -3.23571e-20)
(0.43674 1.28173 7.81469e-21)
(0.642511 1.31031 0)
(0.557077 1.40085 1.05382e-19)
(0.573247 1.40774 -1.02594e-19)
(0.468735 1.29528 3.15816e-20)
(0.524092 1.24266 0)
(0.575512 1.20488 0)
(0.653077 2.40435 5.80561e-19)
(0.668797 2.44631 1.25873e-18)
(0.713152 2.4571 -8.67395e-19)
(0.609227 2.43103 -2.01738e-19)
(0.559619 2.52074 2.83747e-19)
(0.508959 2.49579 -7.56661e-19)
(0.977984 2.3724 -5.74189e-19)
(1.01175 2.38441 0)
(0.925616 2.16785 -6.58676e-19)
(1.05351 2.67049 0)
(1.05582 2.65707 0)
(0.59494 2.25244 -1.33509e-19)
(1.0348 3.15133 1.23245e-19)
(0.906035 3.02187 -2.55824e-20)
(0.25938 0.830478 0)
(0.283474 0.670686 -3.1785e-19)
(0.455694 0.63193 -3.20713e-19)
(0.375136 1.996 0)
(0.460177 2.7772 -4.8287e-20)
(0.413072 2.53967 0)
(0.72357 0.668245 -8.33821e-19)
(0.80803 0.689528 1.11218e-18)
(0.82738 0.630022 -1.09867e-18)
(0.700085 0.63237 -1.06568e-19)
(0.75477 0.591914 -4.35924e-19)
(0.999162 2.74925 -9.37371e-20)
(1.04107 2.81184 -1.69021e-19)
(0.629137 2.11326 7.1186e-19)
(0.580823 1.6824 -5.06752e-19)
(0.691899 1.88412 -4.11457e-19)
(0.985644 2.43342 -1.12913e-19)
(0.993133 2.42638 2.9954e-19)
(0.646165 1.81593 2.8596e-20)
(0.43812 1.30384 1.45818e-19)
)
;

boundaryField
{
    wall-4
    {
        type            noSlip;
    }
    velocity-inlet-5
    {
        type            fixedValue;
        value           uniform (1 0 0);
    }
    velocity-inlet-6
    {
        type            fixedValue;
        value           uniform (0 3 0);
    }
    pressure-outlet-7
    {
        type            zeroGradient;
    }
    wall-8
    {
        type            noSlip;
    }
    frontAndBackPlanes
    {
        type            empty;
    }
}


// ************************************************************************* //
