/*--------------------------------*- C++ -*----------------------------------*\
| =========                 |                                                 |
| \\      /  F ield         | OpenFOAM: The Open Source CFD Toolbox           |
|  \\    /   O peration     | Version:  2206                                  |
|   \\  /    A nd           | Website:  www.openfoam.com                      |
|    \\/     M anipulation  |                                                 |
\*---------------------------------------------------------------------------*/
FoamFile
{
    version     2.0;
    format      ascii;
    arch        "LSB;label=32;scalar=64";
    class       volScalarField;
    location    "94";
    object      p;
}
// * * * * * * * * * * * * * * * * * * * * * * * * * * * * * * * * * * * * * //

dimensions      [0 2 -2 0 0 0 0];

internalField   nonuniform List<scalar> 
918
(
0.559572
1.16575
0.000187786
0.559043
-0.0126356
1.13275
-0.513425
0.652187
0.539782
-0.10382
-0.0549947
0.541727
0.993371
0.759101
-1.12462
-0.0137877
0.652917
-0.381275
0.538919
-0.0766078
0.672828
0.546313
0.549336
0.539913
0.598884
0.731635
0.874451
0.032816
0.0137819
0.0082008
-0.0121164
-0.0388412
-0.033582
1.01641
1.06749
1.09019
0.507493
0.335606
-0.378758
-0.453296
-0.43858
-0.537564
0.654258
0.655686
-0.216697
0.65372
0.6512
0.526783
0.539153
0.540069
0.541074
0.540066
0.541443
0.404566
-0.104976
-0.136534
-0.0846367
-0.0776684
0.0500345
-0.0537171
-0.0546957
-0.0545739
-0.0560883
0.456541
0.53623
0.532855
0.545967
0.555239
1.1053
1.07724
1.10338
1.01699
1.03352
0.971366
0.944087
0.779865
0.801866
0.744872
0.732554
-1.55167
-2.49453
-0.539427
-0.291175
-0.01088
-0.01211
-0.00675304
0.650329
0.651567
0.653324
0.654736
1.07998
-0.378106
-0.481693
0.539065
0.537878
0.546177
0.54688
0.542902
0.541991
-0.065896
-0.0626653
-0.0648375
-0.0713211
-0.0692001
0.644245
0.651391
0.540439
0.53744
0.562937
0.583657
0.57332
0.279041
0.609615
0.625714
0.567526
0.727604
0.719559
0.729107
0.847902
0.81201
0.911585
0.934653
0.0199152
-0.000424881
-0.0180657
-0.0211539
-0.0203251
0.503319
0.49585
0.523762
0.510933
0.513443
0.253272
0.121153
0.419919
0.444284
-0.298503
-0.367246
-0.430745
-0.460615
-0.568259
0.615866
0.656457
0.653599
-0.225887
-0.153823
-0.289053
-0.0803854
-0.143889
0.517027
0.524056
0.519045
0.534623
0.529084
0.531049
0.543433
0.540501
0.542061
0.466524
0.589739
0.330911
0.295145
-0.242644
-0.151708
-0.240775
-0.0675858
-0.0647644
0.0646341
0.0906415
0.0363997
0.024317
-0.060849
-0.0564249
-0.0585046
-0.0559817
-0.0579496
0.449245
0.437957
0.469263
0.47684
0.522981
0.524394
0.528776
0.526846
0.894834
0.917114
0.92481
0.898619
-3.47494
-6.23987
0.0299507
0.164897
-0.00698529
-0.0101517
0.00183012
-0.00638223
-0.000668716
-0.00233777
-0.0118662
-0.0133014
-0.00817863
-0.00697819
0.645528
0.646049
1.00334
1.01159
0.977789
0.931072
0.527357
0.529389
0.534858
0.530759
-0.0587069
-0.0608283
-0.0592639
0.650909
0.648505
0.65004
0.240276
0.149876
0.330383
0.359739
0.639321
0.628789
0.637772
0.626676
0.663476
0.942044
0.960274
0.958497
0.966918
1.01099
1.02741
0.992743
0.482698
0.492716
0.487644
0.526576
0.524497
0.525335
0.52179
0.522771
0.520923
-0.0283412
-0.405515
0.491049
0.506904
0.493649
0.494958
0.696284
0.775306
0.654428
0.655259
0.654692
-0.010271
-0.0689048
0.250085
0.215552
0.388419
0.425049
0.403859
0.866059
0.826501
0.876636
0.849796
0.811275
0.836657
-0.357224
-1.84718
-0.971496
0.51106
0.3271
0.413443
0.00578821
-0.0112751
-0.00647508
1.00415
1.07505
0.645434
0.820941
0.822816
0.70016
0.72938
0.785658
0.712955
0.746393
0.779796
0.759589
0.571189
0.504199
0.52129
0.844279
0.899842
0.119123
0.0563779
0.0126479
0.110013
0.16801
0.141685
1.03467
0.95306
1.02272
0.537202
0.537928
-0.00940058
-0.0268714
0.542196
0.542254
-0.0143022
-0.00391238
0.396729
-0.831639
0.0964922
0.530814
0.520633
0.5378
-0.0893888
0.355992
-0.0545526
0.0463147
-0.0125908
0.532141
0.467712
0.426694
-0.00393446
-0.023477
-0.0655597
-0.210811
0.534871
0.533176
0.537268
0.538203
0.538888
-0.0231351
-0.0195277
-0.0126079
-0.0595014
-0.051753
-0.0672387
0.501662
0.520737
-0.170537
0.537419
0.539559
0.539376
0.532665
0.538282
0.536544
-0.0142676
-0.0183557
-0.0208553
0.219799
0.353181
0.632003
0.716315
0.604677
0.383751
0.151355
0.537869
0.599771
0.507288
0.658835
0.651897
0.649569
0.161929
0.0109372
0.171466
0.113296
0.528669
0.52741
0.518883
0.515837
0.532668
0.530777
0.535346
0.532377
0.535331
0.536706
-0.0460701
-0.0722334
-0.0818716
-0.148183
0.310886
0.571162
0.256066
0.285136
0.141334
-0.0497684
-0.0513062
-0.0519621
-0.058277
-0.000158003
-0.0283778
0.0405743
0.0399541
0.0101987
-0.0153431
-0.0111834
-0.0231307
-0.0156673
0.525423
0.52532
0.530212
0.538776
0.477401
0.481179
0.445869
0.466759
0.451893
0.390263
0.42597
0.401043
-0.0090324
-0.00207067
-0.00561175
-0.021962
-0.0183266
-0.0399346
-0.0374825
-0.0315498
-0.0283556
-0.035774
-0.0586446
-0.0625867
-0.168535
-0.285097
0.989824
0.90891
0.143004
0.52401
0.530476
0.527232
0.532175
0.535306
0.536099
0.533799
0.530342
0.521071
0.522774
0.519309
0.52025
-0.10088
-0.243521
-0.0717048
-0.147886
0.148729
0.630453
0.365085
0.299887
0.295437
0.525193
0.898169
0.67919
0.647472
0.635541
-0.347174
0.0357615
-0.285926
0.323933
0.158374
0.632889
0.681608
0.702973
0.651439
0.605071
-0.0945038
0.558421
-0.0762549
-0.0231117
0.179649
0.0534738
0.637272
0.640704
0.646492
0.641501
0.650513
0.642769
0.623292
0.625291
0.641282
0.647716
0.480815
0.250471
0.20062
0.162117
0.645133
0.514863
0.563655
0.490112
0.523897
0.526502
0.525179
0.506497
0.514091
0.509607
0.516194
0.519727
0.528372
0.528856
0.524101
0.526232
-0.0529312
-0.0587482
-0.0230669
-0.132953
-0.125396
-0.188444
-0.0571224
0.0789389
0.0403224
0.24002
0.343581
0.0554141
-0.0541543
-0.0270412
0.0169667
0.183459
0.212027
0.0757616
0.161904
0.155143
0.135329
0.238306
0.240886
-0.0310424
-0.0316326
-0.0357707
-0.0395829
0.0176523
0.0895855
0.0986527
-0.0119951
-0.0156553
-0.0495647
-0.0525737
-0.0213969
-0.0263672
-0.0220799
0.00580928
-0.0560642
-0.0240143
-0.0102975
-0.0123454
-0.0111447
-0.0160952
0.520114
0.521874
0.522096
0.531099
0.543257
0.557942
0.523482
0.499669
0.490427
0.493431
0.466336
0.476681
0.472484
0.486164
0.507445
0.515962
0.51429
0.517113
0.499443
0.501146
0.487653
0.491341
0.466349
0.446919
0.434847
-0.0466431
-0.009063
-0.0171437
-0.0418446
-0.0127934
-0.0242702
-0.0155715
0.00369837
-0.0134159
-0.0140174
-0.0239385
-0.0325212
-0.0325272
-0.0700926
0.017881
-0.183646
-0.217894
-0.291922
0.892517
1.01662
0.810925
0.584202
0.605549
0.848513
0.932317
0.543787
0.736637
0.759347
0.590138
0.858245
0.528864
0.528457
0.526057
0.525532
0.526753
-0.00423028
0.103418
0.0988581
0.164523
0.280547
0.391016
0.32559
0.199766
0.329229
0.331517
0.622605
0.634389
0.591094
0.615372
0.616368
0.426924
0.502594
0.554263
0.515283
0.567809
0.589635
0.543356
0.576842
0.525561
0.480716
0.476812
0.426617
0.446076
0.421567
0.404786
0.519503
0.496111
0.507039
0.497165
0.519291
0.545373
0.542497
0.565265
0.580293
0.499913
0.455041
0.464267
0.494478
0.456147
0.471617
0.487438
0.238558
0.141515
0.224265
-0.0597314
0.00746723
-0.00347581
-0.0530504
0.000251531
0.283907
-0.404739
-0.381788
-1.00547
0.509143
0.940106
0.554815
0.534378
0.650141
0.638725
0.643051
0.659404
0.652831
0.633484
0.641316
0.646103
0.59085
0.612199
0.626184
0.62368
0.526121
0.380678
0.380755
0.327929
0.197937
0.238441
0.433774
0.358351
0.283489
0.283539
0.458069
0.344111
0.414957
0.447269
0.378236
0.332845
0.536643
0.602478
0.595522
0.56963
0.478661
0.490032
0.515227
0.548822
0.572122
0.606875
0.515598
0.521557
0.522784
0.520256
0.517522
0.520619
0.520872
0.523449
0.524071
0.527086
0.526153
-0.0501408
-0.0368497
-0.0472833
-0.0585692
-0.0148587
-0.0173964
0.0260393
0.0133529
-0.0140917
-0.00957979
-0.0302824
-0.0344583
-0.0316692
-0.0244205
0.105597
0.117994
0.102326
0.0629757
0.254746
0.383571
0.458107
0.33324
0.228124
0.251869
0.270031
-0.0115115
0.0127356
0.000317797
0.040124
0.0329208
-0.0416729
-0.0465324
-0.0442204
-0.033396
-0.0251876
-0.047492
-0.0564671
-0.0449751
-0.0489412
-0.0516953
-0.0583487
0.501952
0.495444
0.497037
0.490998
0.489707
0.503905
0.508206
0.510214
0.515752
0.517991
0.508049
0.513477
0.51742
-0.0175332
-0.0411419
-0.0436284
-0.0387148
-0.0388676
-0.0370555
-0.0397379
0.129802
0.0611884
0.0645049
0.0159695
-0.118593
-0.0598967
0.495714
0.49344
0.481411
0.724742
0.574169
0.495078
0.591673
0.697568
0.283107
0.476749
0.313157
0.891151
0.788477
0.934514
0.54584
0.251556
0.418694
0.456942
0.273811
0.352107
0.324865
0.214999
0.245215
0.285999
0.382946
0.27041
0.248757
0.00532057
0.195815
0.305533
0.287733
0.410401
0.469885
0.272614
0.191987
0.146988
0.606899
0.626158
0.63943
0.6118
0.634477
0.583876
0.575723
0.591198
0.599482
0.592951
-0.734946
-0.44109
-1.38946
-0.71809
-0.259759
0.539265
0.516124
0.773025
0.64263
0.667562
0.652501
0.616789
0.588592
0.613916
0.633718
0.339326
0.450275
0.425059
0.431781
0.334568
0.264084
0.56376
0.561479
0.595065
0.619088
0.590009
0.6208
0.513404
0.513124
0.512587
0.508827
0.507091
0.509434
0.0608153
0.0280877
0.0697798
0.0523032
0.0300674
0.0180727
-0.0193978
-0.029831
-0.0356096
-0.0343041
-0.019653
-0.0160079
0.176739
0.1128
0.0341617
0.0626144
0.00133323
-0.0676712
-0.0873951
0.0197361
0.116642
0.106836
0.410387
0.658148
0.478724
0.64555
0.488866
0.544375
0.469662
0.460501
0.484577
0.383135
0.463773
0.262968
-0.246591
-0.156717
0.798202
0.808291
0.582271
0.412128
0.177785
0.350419
0.540409
0.469081
0.50379
0.572068
0.558458
0.0398191
0.0936596
0.391885
0.618654
0.247169
0.23764
0.231267
0.419098
0.335487
)
;

boundaryField
{
    wall-4
    {
        type            zeroGradient;
    }
    velocity-inlet-5
    {
        type            zeroGradient;
    }
    velocity-inlet-6
    {
        type            zeroGradient;
    }
    pressure-outlet-7
    {
        type            fixedValue;
        value           uniform 0;
    }
    wall-8
    {
        type            zeroGradient;
    }
    frontAndBackPlanes
    {
        type            empty;
    }
}


// ************************************************************************* //
