/*--------------------------------*- C++ -*----------------------------------*\
| =========                 |                                                 |
| \\      /  F ield         | OpenFOAM: The Open Source CFD Toolbox           |
|  \\    /   O peration     | Version:  2206                                  |
|   \\  /    A nd           | Website:  www.openfoam.com                      |
|    \\/     M anipulation  |                                                 |
\*---------------------------------------------------------------------------*/
FoamFile
{
    version     2.0;
    format      ascii;
    arch        "LSB;label=32;scalar=64";
    class       surfaceScalarField;
    location    "94";
    object      phi;
}
// * * * * * * * * * * * * * * * * * * * * * * * * * * * * * * * * * * * * * //

dimensions      [0 3 -1 0 0 0 0];

oriented        oriented;

internalField   nonuniform List<scalar> 
1300
(
3.75095
5.62643
-3.2645
3.75095
-7.75485
5.62643
-4.41517
4.41517
-0.347787
0.347787
1.87638
1.87457
-2.69718
2.69718
-2.02409
2.02409
-2.5214
2.5214
-5.24649
5.24649
-5.06934
5.06934
4.64831
-4.64831
-6.31845
6.31845
-0.935976
0.935976
-3.69788
3.69788
3.16957
-3.16957
-1.90909
1.90909
0.0948724
-0.0948724
-0.553467
4.30442
3.19749
3.19749
-2.00613
2.00613
-4.87056
4.87056
6.21812
-6.21812
5.24195
-5.24195
-1.97746
-2.49349
1.80089
-11.4612
-5.95396
-5.95396
-8.44037
8.44037
-2.81394
2.81249
2.94647
-2.94647
-1.76203
1.76203
-4.37908
-0.0360896
-4.37908
4.38364
0.0315232
4.38364
-0.454731
0.106944
-0.454731
4.01936
-4.01936
0.242381
0.105406
0.242381
3.06541
-3.06541
-1.87712
3.75351
1.87383
-1.8719
6.17633
-1.87905
3.75362
-6.01085
6.01085
-2.94389
0.246712
-2.94389
2.48377
0.213404
2.48377
-6.85071
6.85071
-2.0827
0.0586152
-2.0827
1.97109
0.0529942
1.97109
2.88226
-2.88226
-2.62758
0.106183
-2.62758
2.39252
0.128882
2.39252
0.353501
5.27293
-5.97993
8.79242
-5.27293
0.0264392
5.20835
0.0381373
5.20835
-5.10603
0.0366828
-5.10603
5.01252
0.0568202
5.01252
4.73004
-0.0817322
4.73004
-4.76904
0.120736
-4.76904
-3.36891
-4.05682
-6.46872
0.150265
-6.46872
-1.02518
0.0892053
-1.02518
0.823366
0.11261
0.823366
-3.68725
3.68725
-4.12098
0.423099
-4.12098
3.12395
0.0456293
3.12395
1.86849
1.88247
5.61944
-5.61944
2.44986
-1.87766
-0.0314269
-1.87766
-1.98856
-3.25339
1.98856
-0.0794749
-0.151109
0.245982
-0.151109
3.15945
0.0380316
3.15945
2.23517
0.15735
-2.23517
0.229043
3.28145
-3.28145
1.33435
0.671779
1.33435
-5.56291
5.56291
4.95701
0.0555172
-4.95701
0.0864469
6.15656
0.0615642
6.15656
-6.19953
-0.0185912
-6.19953
2.52697
-5.02046
-2.66049
6.13638
0.182074
-6.13638
0.182421
2.91847
0.0279996
2.91847
-2.91773
2.91773
-2.98488
0.0384074
-2.98488
-2.16083
0.398804
-2.16083
1.46403
0.297998
1.46403
-4.28172
-0.0973605
-4.28172
-4.27241
0.151435
4.27241
0.11123
1.12841
-1.12841
-0.587571
0.132841
-0.587571
-4.1458
-0.135911
4.1458
-0.126443
-3.90575
-0.113611
-3.90575
-3.02464
0.0397645
3.02464
0.0407648
3.11291
0.0465408
-3.11291
0.0475076
-1.87081
3.75328
-1.88014
3.75397
-5.6317
-0.379152
-5.6317
6.32183
-0.310971
6.32183
3.33871
0.359172
-3.33871
0.394817
2.3122
0.171571
2.3122
-6.81125
-0.039458
-6.81125
6.83746
0.0132477
6.83746
2.17989
0.132311
-2.17989
0.0971873
1.92438
0.0467086
1.92438
2.90303
-0.0207694
2.90303
-2.87609
-0.00617612
-2.87609
2.79015
-2.79015
2.71509
0.07506
-2.71509
0.0875054
-11.1332
11.1146
-0.0353156
-11.0978
5.17304
5.17304
4.15428
0.575756
4.15428
-4.98844
0.219394
-4.98844
2.69885
-5.35934
3.10813
-6.47704
4.65897
-16.1201
4.28364
-8.34046
6.70699
-6.70699
6.59683
0.110155
-6.59683
0.128115
-1.14371
0.118528
-1.14371
-3.087
-0.600257
-3.087
4.32731
-0.640054
4.32731
-3.02785
3.02785
-3.07734
0.0494954
3.07734
0.0466039
1.88672
0.0376597
-1.88672
0.00906425
0.176094
0.0662869
-0.176094
0.0249846
3.49723
-0.215782
3.49723
-3.08171
-0.199738
-3.08171
-1.24396
0.100255
1.24396
0.0903833
-5.81403
0.251118
-5.81403
-11.1907
0.0929101
-11.1526
-6.10662
-6.10662
2.33375
11.1262
-2.89389
0.0178002
2.89389
0.0245813
2.97428
0.0535654
-2.97428
0.056551
-2.85693
0.0667863
2.85693
0.0607948
-2.53579
0.374955
-2.53579
-1.0654
1.0654
-1.22857
0.163176
1.22857
0.235459
1.40311
-0.274699
1.40311
0.707421
0.115945
-0.707421
0.11985
-3.80216
-0.103585
-3.80216
6.55777
-0.235941
6.55777
-2.96567
-0.116041
2.96567
-0.0626359
-0.0332884
11.1478
-5.13975
0.0337231
5.13975
-11.2094
11.2431
-3.20571
0.66992
3.20571
0.948575
5.28244
0.280473
-5.28244
0.294005
6.78946
0.0479997
-6.78946
0.0824701
-2.59475
-0.492245
-2.59475
-5.05102
-0.580678
5.05102
-0.723717
-11.4749
-0.204267
11.6792
-11.4181
6.0183
0.138258
-6.0183
11.3814
-1.02593
-0.102487
1.02593
0.0394689
1.73204
-0.328923
1.73204
3.69672
-0.199492
-3.69672
-0.105441
-6.71291
-0.0983358
6.71291
-0.155147
-2.1496
-0.445155
2.1496
-0.41756
-4.26714
4.30517
1.90919
-2.37578
-2.64468
-5.62917
1.85184
1.90144
4.30171
-10.1201
-5.99999
-9.93772
7.26021
-6.96621
-9.23
9.14827
7.9163
-8.02991
-5.78465
5.83125
6.483
-6.44224
1.87885
1.87466
8.04485
-7.79814
-15.559
15.1798
7.58465
-7.52603
15.7145
-15.754
-17.7967
17.8446
-5.70731
5.81349
-6.74102
6.73485
-6.97737
6.91473
-2.8373
-3.63973
13.0775
-12.9272
8.65702
-8.68844
-8.64537
9.06847
3.38261
0.92256
3.42915
-1.88213
3.76098
-1.87149
3.78068
2.75753
-5.59483
2.60181
-5.24649
4.40337
4.25365
-4.32389
-1.30527
-5.92503
5.95303
-5.8143
5.87509
9.17084
-9.20693
-1.88518
3.75984
-1.86879
3.77023
-3.42499
-2.35965
3.37936
0.922344
8.0476
5.0299
-8.22968
-1.70805
-8.05138
7.85189
-8.23606
8.03632
-0.43331
5.81982
-5.38651
4.43725
-1.56514
7.38496
5.69508
5.91447
5.86555
-5.58508
1.10066
-6.48717
-6.40072
-2.19908
2.33192
2.08425
-1.97885
6.16715
1.74915
6.0407
-5.77314
-2.25677
-5.87672
3.82035
2.0109
3.86984
4.07857
2.40443
4.11834
3.03039
-3.03602
0.00563637
-3.05673
6.08712
0.723814
-5.41639
-4.49404
4.98778
3.05707
5.20118
-5.57062
-2.22752
-5.1758
-9.51251
-6.04645
-10.0932
10.0546
5.12522
9.74362
-11.9221
11.767
4.81427
2.77038
4.86726
-4.96332
-2.56271
-4.86614
11.625
-2.64758
-8.97743
-10.2889
-7.50773
10.2757
5.43882
10.9319
6.91279
11.0143
4.41471
7.2103
-9.85353
2.3458
-3.8683
-1.83901
-3.7808
3.6759
2.1376
3.80478
-4.21771
-2.52331
-4.19991
-4.29603
-2.68134
4.3168
2.41805
-4.41859
-3.81747
4.53463
2.3801
4.03656
-10.0366
4.3039
-7.94363
-9.17034
-3.75689
-9.04223
3.56057
2.61396
-6.17453
-2.03426
8.58602
-4.33237
7.28075
-5.21944
-3.469
-5.21038
-6.90672
-1.73865
-6.75529
-8.85451
8.36226
-9.1499
8.50985
12.4711
-5.62516
-6.84598
-3.96848
-2.47376
3.92098
-0.491826
-3.71045
3.71609
0.0505238
3.8312
4.75376
4.26194
-3.88508
-1.92922
-3.82853
3.82506
2.05004
3.89184
6.86101
2.30983
6.89253
-6.63659
-2.57034
-6.73395
9.01443
-8.61562
2.8308
-2.73055
5.40383
2.63249
-5.18805
-2.86333
6.20747
-3.21999
-2.98748
-12.2061
10.5207
1.68535
-4.82113
-0.383877
-0.478749
-5.48407
-3.74593
5.36333
0.551138
11.0719
7.32594
-5.51111
5.76223
6.16805
6.22357
-0.177148
5.78995
-5.12003
5.26011
-2.62058
-2.63953
5.49373
-5.62964
-1.24023
-5.54826
4.30804
0.411066
1.38625
-1.14027
-1.74513
-0.453954
-1.62528
1.17375
0.910497
1.24004
0.961003
1.37092
-2.93589
0.500982
2.43491
-1.97489
-1.47786
-3.86404
-1.13517
4.9992
5.7489
2.10299
-5.64346
-0.233263
2.50696
-2.39435
-0.818181
-3.04585
2.22948
-3.04766
-3.66301
-2.10061
5.76361
-3.36983
-0.458696
3.31627
0.553573
-3.82731
-2.09772
3.7889
0.329436
-3.12837
6.19089
-3.06252
-5.05759
2.52742
3.5597
4.53832
-4.78958
2.44785
2.34173
-1.22988
4.25315
0.948034
4.42472
-6.96721
4.73969
5.82193
3.24654
-6.1811
1.0053
-5.96191
8.55198
-7.38042
-1.17155
4.16927
4.38271
7.03764
5.4335
-5.65636
12.694
-1.20833
-6.17209
7.17024
-3.9237
4.85864
-8.78234
-10.2921
4.12005
-9.10177
10.8763
-1.77448
-3.61404
-8.30809
12.7158
-1.19959
-11.5162
8.54403
-4.29564
-4.41875
8.71439
-6.94322
6.98146
-1.99231
-4.98915
-10.0735
-5.68042
10.1719
1.59512
-9.94463
12.2904
-2.73433
4.12127
0.745998
4.16798
3.30706
-5.49355
2.18648
3.63615
-5.62847
2.07817
-7.57171
-6.71278
12.0444
-5.3316
-10.4697
-9.49
-0.979666
2.53569
9.75474
-9.44848
7.40775
2.04073
3.30075
0.591094
-3.37581
-0.40499
0.233397
4.5129
-4.7463
4.03817
4.19552
3.26238
1.25052
3.84574
2.10729
-3.87032
-0.329592
-4.16429
1.48295
-1.74624
-3.69539
5.17834
-4.0676
0.372209
-2.74416
-3.49762
6.24178
-4.58317
3.03465
3.15624
5.08469
-4.91379
1.41617
-2.39275
-2.52104
2.65143
-4.39767
1.9952
3.18314
4.3753
0.557828
5.87064
6.17374
-8.4846
0.540963
11.2036
-9.49559
2.45827
8.55606
-9.86602
0.376017
-8.66621
1.00565
-5.33802
-5.16888
5.21095
-6.9496
-3.57139
6.2328
0.659734
-6.34403
-0.411259
-6.01808
-2.83643
-6.46323
-3.03504
-6.11486
-8.6914
-1.64715
-7.04425
6.71512
-6.66348
-3.42971
7.3872
1.12265
-7.39155
7.28906
-7.46977
7.14085
0.0954875
3.6206
4.35742
1.88367
-2.39072
4.27439
-5.13254
7.44237
-8.74519
3.61265
4.22029
-6.79063
-4.5249
5.00642
4.008
5.30442
8.85827
-10.3177
1.45945
-10.6173
11.9509
-1.33354
-16.3645
5.74722
-7.50626
2.43258
0.398221
2.55111
0.54086
2.49858
-3.03944
-2.18969
-2.0993
-2.44342
-3.46482
5.90824
1.08241
-3.5326
2.45019
-3.56754
4.64994
-0.221381
-3.31122
5.26505
-2.76647
5.66327
-3.78892
1.87435
3.441
5.75463
-2.31364
4.39601
-1.76352
1.93214
-4.24578
-1.53268
-2.9543
5.09189
-3.28748
3.65969
-0.345593
4.00529
-4.04578
0.825788
-0.783393
3.41213
3.64117
4.31728
-3.06676
2.91598
-4.6795
-1.3298
-4.12167
-0.938526
-0.252912
-3.68778
3.94069
5.95864
-6.21155
-5.22443
9.50637
-4.28193
7.67515
-5.3711
-2.30405
-4.23889
-4.37673
3.86393
1.92602
9.60117
0.206625
-5.57772
-4.91341
-3.96483
3.0977
2.1624
-1.68853
3.37389
2.16728
-0.78103
0.435977
0.804064
1.76294
-1.32696
0.311221
1.45172
-0.829049
1.69101
0.815946
-1.80696
0.181681
-1.35605
3.58553
1.07886
-1.98935
0.662391
0.981262
-3.60184
5.08497
-2.6937
-2.39127
6.06623
1.1456
-3.8393
4.40266
-3.99159
2.40757
-3.54274
-1.43173
-5.42332
-3.67417
-2.51415
4.96434
-3.39409
5.49708
1.30133
-5.26381
6.56515
-3.73129
1.63068
-3.03897
3.85492
-0.918657
-2.12032
2.90071
2.8629
-3.09149
0.0456349
-0.190777
2.4015
-2.59228
-0.64616
-2.62105
-4.57374
4.90318
-2.10507
4.55292
2.16931
-1.91735
6.47027
1.80863
-3.72597
-3.24896
-3.70765
-1.38424
3.15408
-0.568115
-4.29802
-5.55726
4.16571
0.259008
-7.08295
7.90052
-0.817574
-4.02587
-0.713816
4.88308
-6.09677
0.468304
-4.0186
3.88192
4.82995
5.08896
-11.2953
-0.220972
-6.17003
1.11895
-7.28898
5.50166
-3.52468
7.64473
-10.292
6.86226
-9.16932
6.47317
-0.815809
6.23397
-4.04749
2.74346
-8.42389
-6.82877
5.56982
-2.79944
6.31582
-3.18063
9.49644
-5.91495
5.34902
4.14742
-1.01914
-4.19124
-5.36342
4.34428
-0.014398
4.15358
4.98048
-2.87319
4.65088
2.2701
-4.66285
-2.12757
-6.49626
1.83342
-3.34002
-1.92142
3.75483
3.16327
3.75437
1.23379
-3.34938
7.20071
-8.18037
-1.86911
-3.29977
5.35719
-1.01292
3.44983
-6.7496
-1.88819
4.77221
-0.776057
-3.99615
0.852955
-4.42435
1.67693
-6.10127
5.27267
-5.68393
2.22038
-9.72664
-5.17117
-5.1317
-2.25632
-5.21346
-7.54813
5.29181
-1.80091
5.48815
-8.47621
7.70015
-3.47464
8.76646
-5.41411
-1.04913
5.83167
1.30918
10.0756
0.228303
-4.7532
-1.92814
3.82565
-1.89751
1.16957
-3.45948
0.366171
2.50351
3.56272
-6.81155
0.0209138
-4.73228
-3.9086
7.9166
5.59777
11.5564
1.23868
9.0942
-1.1776
10.3329
4.12682
4.36228
-2.97595
4.4354
0.964741
4.57739
-0.927204
2.80156
1.6239
1.71311
0.681241
2.30371
1.33746
3.1295
0.0900614
-2.00924
4.61417
-8.579
-0.963553
-8.00325
1.14502
5.70155
-4.55653
2.90306
-0.740653
1.00555
-0.14429
-1.14089
1.28518
-2.78382
-1.92192
-0.4702
-1.68946
2.35186
1.89607
-1.88166
-0.902161
0.348502
-4.02267
3.19424
-3.1486
-0.285704
6.27944
-2.8131
0.220818
-1.18242
-2.40023
-2.85418
2.6725
6.17641
0.293865
3.11388
5.19704
3.09933
0.226141
3.87901
-5.65349
-3.6927
-5.87447
-0.372805
4.51028
1.76294
7.9918
5.91036
4.89745
-1.85215
-10.0325
6.49623
-2.06083
5.16268
-1.16653
-4.93474
5.06273
2.37964
-5.72246
0.0385339
-4.89621
-6.95703
-0.509775
8.20993
-9.56586
8.51674
5.6803
1.36395
-4.39099
-0.740707
4.22782
0.134459
10.4673
-1.13102
-6.68782
7.81884
-4.57053
3.60697
0.728605
2.64528
2.01378
1.27313
-5.41469
-9.97122
-2.07424
-1.5276
-4.46551
0.533697
-2.42976
6.20902
-2.60204
3.90497
5.21679
6.22234
-2.126
-4.08555
6.40794
-2.50296
3.71938
)
;

boundaryField
{
    wall-4
    {
        type            calculated;
        value           uniform 0;
    }
    velocity-inlet-5
    {
        type            calculated;
        value           uniform -3.75095;
    }
    velocity-inlet-6
    {
        type            calculated;
        value           uniform -5.62643;
    }
    pressure-outlet-7
    {
        type            calculated;
        value           nonuniform List<scalar> 8(3.2645 7.75485 4.47094 9.66029 7.42573 5.18746 5.80698 8.9426);
    }
    wall-8
    {
        type            calculated;
        value           uniform 0;
    }
    frontAndBackPlanes
    {
        type            empty;
        value           nonuniform List<scalar> 0();
    }
}


// ************************************************************************* //
