/*--------------------------------*- C++ -*----------------------------------*\
| =========                 |                                                 |
| \\      /  F ield         | OpenFOAM: The Open Source CFD Toolbox           |
|  \\    /   O peration     | Version:  2206                                  |
|   \\  /    A nd           | Website:  www.openfoam.com                      |
|    \\/     M anipulation  |                                                 |
\*---------------------------------------------------------------------------*/
FoamFile
{
    version     2.0;
    format      ascii;
    arch        "LSB;label=32;scalar=64";
    class       volVectorField;
    location    "94";
    object      U;
}
// * * * * * * * * * * * * * * * * * * * * * * * * * * * * * * * * * * * * * //

dimensions      [0 1 -1 0 0 0 0];

internalField   nonuniform List<vector> 
918
(
(0.98516 -0.000508483 0)
(0.00501949 2.96624 0)
(0.00927235 0.876203 0)
(0.979705 0.00214493 0)
(-0.0125251 2.06223 3.7666e-20)
(-0.00705178 2.9488 -2.42367e-18)
(0.824297 1.1709 4.51059e-19)
(0.103292 0.0795067 -1.4533e-20)
(0.999909 -0.000275467 0)
(0.0661806 0.742066 0)
(0.0202402 0.480252 0)
(0.731842 0.00721148 0)
(0.0110918 2.93041 0)
(0.00269874 2.7952 0)
(-0.0180646 3.14509 7.83062e-19)
(-0.0208384 1.91975 1.21726e-20)
(0.286741 0.0625313 1.0206e-18)
(0.19016 1.14814 3.16343e-19)
(0.962709 0.00501233 0)
(0.00762406 0.407606 0)
(-0.00472668 0.0181292 -6.66438e-19)
(1.00197 -0.00497406 0)
(1.00023 -0.00978299 0)
(0.975741 -0.00643825 0)
(0.598044 0.0312508 0)
(0.0135967 2.64326 0)
(-0.014833 2.90999 8.88764e-19)
(0.0165204 0.919613 0)
(-0.0208623 1.18437 0)
(0.0192377 0.903824 0)
(-0.0159022 2.58449 0)
(-0.00145252 2.11631 -3.00828e-20)
(-0.011298 1.89946 0)
(-0.0206058 2.98761 -8.69812e-23)
(-0.0166806 3.00529 1.8835e-18)
(0.00209706 3.00017 0)
(0.871485 -0.00966106 0)
(0.399441 0.927481 1.82195e-19)
(0.811128 1.1843 -5.15593e-19)
(0.962396 1.03089 5.62567e-19)
(0.678455 1.27622 -1.05148e-19)
(0.677957 1.25025 6.01953e-19)
(0.133117 0.119323 1.42147e-20)
(0.140861 0.0601903 0)
(1.16835 0.56727 0)
(0.0973062 0.0881946 6.38466e-20)
(0.0718108 0.0542403 -6.64636e-20)
(0.919932 -0.00745786 0)
(1.00027 0.000163003 0)
(0.999909 0.000340107 0)
(1.00363 -0.00775682 0)
(1.00096 -0.000916718 0)
(1.00017 3.85662e-05 0)
(0.072607 1.82588 -7.73285e-19)
(0.0330787 0.945362 0)
(0.0985562 0.822113 0)
(0.0151113 0.893003 0)
(0.0415604 0.660077 0)
(0.0072999 2.01623 0)
(0.0026532 0.770332 0)
(0.0197876 0.504289 0)
(-0.00192163 0.758455 0)
(0.0144061 0.459247 0)
(0.842251 -0.0156548 0)
(0.842377 0.0272113 0)
(0.75769 0.00409793 0)
(0.800705 0.0295177 0)
(0.700826 0.0192209 0)
(0.0146785 3.00041 8.97772e-19)
(0.0114797 3.00808 0)
(0.00610337 3.00273 0)
(0.0135283 2.99736 1.01747e-23)
(0.00796131 2.95849 -1.33431e-18)
(0.0144963 2.98205 0)
(0.0108786 2.90357 0)
(0.0243173 2.93101 2.02691e-24)
(0.0047399 2.8249 0)
(0.0299106 2.91664 0)
(-0.00491465 2.7456 0)
(0.302647 3.535 0)
(-0.131502 3.61502 0)
(0.136324 3.2348 -7.28702e-19)
(-0.0141539 2.97511 0)
(-0.0282031 1.9873 0)
(-0.00706734 2.17035 -1.20058e-20)
(-0.0146642 1.92823 6.81616e-21)
(0.337194 0.137194 -3.54321e-19)
(0.317345 0.0377466 -3.44414e-19)
(0.291168 0.139894 -1.06139e-18)
(0.250353 0.0676785 -6.89407e-19)
(0.229909 0.986437 0)
(0.273557 1.29757 -3.68493e-19)
(0.36901 1.23381 6.15248e-19)
(0.987419 0.00858319 0)
(0.94184 0.0058011 0)
(1.0003 0.000581805 0)
(1.00286 0.0093105 0)
(1.00301 0.00847639 -2.75733e-18)
(0.991906 0.00969296 2.08223e-18)
(-0.011478 0.74647 0)
(0.0131765 0.417297 0)
(-0.0563299 1.00861 0)
(-0.0329069 0.797501 0)
(0.000516555 0.40983 0)
(-0.0921697 0.0888645 2.06856e-19)
(0.0450761 0.0636114 0)
(0.993557 -0.00836837 0)
(0.954476 -0.00653439 0)
(0.743509 0.0302153 0)
(0.677836 0.0287346 0)
(0.660621 0.0265142 0)
(0.973099 -0.00704652 0)
(0.58514 0.0740347 0)
(0.45851 -0.0009322 1.54707e-18)
(-0.0376022 2.86094 6.48914e-19)
(0.0410585 2.90989 0)
(0.0531189 2.88661 0)
(-0.00467354 2.70131 0)
(-0.0132898 2.98524 8.39894e-19)
(-0.0177396 2.895 0)
(-0.0153621 2.98809 -2.60762e-18)
(-0.0133086 2.92518 8.93066e-19)
(-0.0391521 1.35534 0)
(-0.00856088 1.38768 0)
(-0.00731654 2.13551 5.81288e-22)
(-0.00642312 2.09711 0)
(-0.0231976 1.90715 0)
(0.938718 -0.00734853 0)
(0.857692 -0.00997268 0)
(0.862539 0.00572708 0)
(0.949683 -0.00778277 0)
(0.88415 -0.00820178 0)
(0.51032 1.12001 -2.2988e-19)
(0.559649 1.17115 0)
(0.364322 0.872259 3.38228e-20)
(0.307557 0.731271 0)
(0.924769 1.06681 -1.55338e-19)
(1.0444 0.876275 3.17621e-19)
(0.361583 1.36033 0)
(0.530177 1.33189 0)
(0.551096 1.2707 0)
(0.121472 0.183727 -3.04096e-19)
(0.16232 0.115979 0)
(0.174085 0.100117 1.89733e-19)
(1.01497 0.930494 0)
(1.08924 0.783511 0)
(1.11469 0.725213 -2.53704e-19)
(1.14768 0.626846 0)
(1.19744 0.409435 5.79441e-20)
(0.957817 -0.00867932 0)
(0.962548 -0.0100189 0)
(0.901814 -0.00798928 0)
(0.984213 -0.00913934 0)
(0.974729 -0.00932094 0)
(0.937156 -0.00637546 0)
(1.00019 0.00234123 0)
(1.0009 0.00141834 0)
(0.999909 0.000856044 0)
(0.0355613 2.07078 4.28433e-19)
(0.118334 1.76894 0)
(0.0182218 2.18412 6.58908e-19)
(0.0458648 1.88014 -5.49103e-19)
(0.107354 1.15078 -2.59042e-19)
(0.0502801 1.02675 0)
(0.144528 0.988017 0)
(0.00875567 0.845978 0)
(0.0217054 0.595483 0)
(-0.000768228 2.24084 -7.94014e-22)
(0.0162349 2.01984 0)
(-0.00166704 2.24388 -2.64471e-20)
(0.00873889 2.02629 3.94601e-20)
(0.00595108 0.8142 0)
(0.00475359 0.78907 0)
(0.0161157 0.545053 0)
(-0.00536081 0.748742 0)
(0.00786118 0.440323 0)
(0.938947 0.00989048 0)
(0.851111 -0.014591 0)
(0.927969 0.000513874 0)
(0.842957 -0.0128716 0)
(0.809317 0.00121878 0)
(0.899276 0.0208772 0)
(0.875314 0.0244348 0)
(0.783132 0.00130711 0)
(0.00573112 3.06494 -8.3423e-21)
(0.0167438 3.05765 0)
(0.0147066 2.969 0)
(0.00872436 2.87618 0)
(0.916865 3.94435 0)
(1.22923 3.27837 9.21134e-19)
(0.0685071 3.06746 0)
(-0.0294503 2.90098 0)
(-0.011474 1.41137 0)
(-0.0337462 1.70275 0)
(-0.0203512 1.54193 0)
(-0.0312642 2.54414 -9.37353e-21)
(-0.0159831 2.239 0)
(-0.0217804 2.38489 0)
(-0.000629959 1.95481 8.88301e-22)
(-0.00363368 2.24077 -1.09035e-20)
(-0.00549476 2.20521 -7.11179e-21)
(-0.00849515 1.93965 0)
(0.38703 0.120818 5.41857e-19)
(0.367144 0.0237508 -5.3173e-19)
(0.258021 1.58394 0)
(0.278344 0.759703 -3.16602e-19)
(0.176719 1.67138 -1.04881e-18)
(0.22545 1.2216 1.05107e-18)
(0.9019 0.00621653 0)
(0.967318 0.0112175 0)
(0.974506 0.0108403 0)
(0.923247 0.00633135 0)
(-0.00861643 0.74433 0)
(-0.00941028 0.74187 0)
(0.00870063 0.421775 0)
(0.0857501 0.0669746 5.88023e-19)
(0.0828576 0.0387927 -6.89451e-19)
(0.046152 0.0484839 0)
(1.10245 0.0872887 2.71729e-20)
(1.08441 0.0400787 0)
(1.01547 0.0405062 0)
(0.908841 -0.00494395 0)
(0.439629 0.103624 0)
(0.498735 0.0871293 -2.47307e-18)
(0.410562 0.017369 9.25338e-19)
(0.00855898 2.98089 6.99499e-19)
(-0.0323517 2.86519 4.71019e-20)
(0.00356043 3.05028 -1.76805e-20)
(0.020269 3.0433 6.28829e-19)
(-0.0150059 2.9966 2.93469e-20)
(-0.0129191 2.94948 -1.18126e-22)
(-0.0172446 3.01191 -5.43914e-19)
(0.0148742 3.02374 3.93782e-19)
(0.00739662 3.03683 -6.22819e-19)
(0.93427 -0.00113486 0)
(0.939654 -0.00314021 0)
(0.846277 -0.00945872 0)
(0.95636 0.0120908 0)
(0.94237 0.0135129 0)
(0.88127 0.00568381 0)
(0.916321 0.0173821 0)
(0.925427 0.0153692 0)
(0.837063 0.00304624 0)
(0.712692 1.39681 3.54955e-20)
(0.746155 1.50539 0)
(0.178671 0.30969 7.06786e-20)
(0.229553 0.666749 5.68012e-19)
(0.261064 0.715854 -3.31976e-19)
(0.26026 0.513647 6.61184e-19)
(0.347313 0.812005 1.60013e-18)
(0.141335 0.230407 3.7767e-19)
(0.250626 0.140879 7.29378e-19)
(0.212341 0.131185 1.88877e-19)
(0.212519 0.0813818 3.57508e-19)
(1.18634 0.467669 6.67252e-20)
(1.20067 0.258986 6.15958e-20)
(0.0104307 2.23297 2.53427e-19)
(0.0402928 1.94863 0)
(0.972006 0.0296874 0)
(0.944178 0.0140852 0)
(0.870271 -0.0177074 0)
(0.0112473 3.07405 0)
(0.0195555 2.94411 1.14788e-18)
(0.0163925 2.95622 0)
(0.00649495 2.85058 -1.1385e-18)
(0.00643612 3.09126 2.78159e-19)
(0.00714794 3.08271 0)
(0.77884 1.80624 -1.56536e-19)
(1.23703 2.48039 3.9582e-19)
(0.760796 1.94543 -1.21784e-18)
(0.0193279 2.97972 -6.00905e-19)
(0.0348308 2.9979 0)
(-0.0348759 2.87539 0)
(-0.00382573 2.22381 -1.3262e-20)
(-0.00311307 2.24491 1.79093e-20)
(0.00204819 1.98913 -7.3575e-21)
(0.278223 1.39393 1.02684e-18)
(0.240507 0.555959 -7.03933e-19)
(0.0636993 1.99575 7.62282e-19)
(0.134876 1.88202 -9.10366e-19)
(0.179887 1.51239 9.53486e-20)
(0.00331971 3.11796 -1.70756e-18)
(0.016542 3.11804 1.82947e-18)
(-0.00928665 2.98074 7.70509e-19)
(-0.00354034 2.97711 -7.26799e-19)
(-0.021231 2.88107 -7.84743e-19)
(0.00860655 3.09885 -2.06536e-18)
(0.00185179 3.10686 2.01647e-18)
(0.283134 0.693968 0)
(0.248515 0.682183 -1.18379e-18)
(0.0953163 0.223355 5.25491e-19)
(0.35855 0.939925 1.11785e-18)
(0.19644 0.27709 -1.72358e-18)
(1.19064 0.176584 6.27793e-20)
(1.20098 0.31405 0)
(1.17901 0.123803 -5.61084e-21)
(0.00171565 2.25215 -1.45457e-21)
(0.00512327 2.24319 0)
(0.0247093 1.98468 0)
(0.339581 1.30284 -3.6848e-19)
(0.375397 1.15195 -8.02217e-19)
(0.211225 0.379954 1.43124e-18)
(1.00588 -0.0108219 0)
(1.00767 -0.00762973 5.08642e-19)
(-0.0330517 1.33687 0)
(-0.044923 1.33983 0)
(1.00221 0.00351731 1.81284e-21)
(1.00366 0.0094742 1.03862e-18)
(-0.0198873 2.52913 1.1881e-20)
(-0.0247007 2.57172 0)
(0.0335558 3.17609 3.93606e-19)
(0.387269 3.47963 0)
(1.17944 0.66922 -5.62078e-20)
(1.01282 0.0131547 -2.13209e-21)
(1.02137 -0.0102585 0)
(1.0017 0.000138417 8.11558e-23)
(0.113278 1.37429 0)
(0.143173 2.56193 0)
(0.035897 1.31622 0)
(0.000821998 2.61414 2.66448e-20)
(-0.0204006 2.5718 2.1503e-23)
(0.999641 0.0311241 2.52263e-21)
(1.06336 0.00494605 0)
(1.09802 0.0256365 0)
(-0.0320168 1.7468 0)
(-0.018319 2.57314 0)
(-0.00476596 1.32704 0)
(0.311834 1.48737 -1.66043e-19)
(1.01131 -0.00960601 0)
(1.0094 -0.0149132 0)
(1.00237 0.000764635 6.50088e-19)
(1.00547 -0.0047928 -7.64027e-19)
(1.00118 -0.000964515 0)
(-0.0195586 1.47838 0)
(-0.00696519 1.39346 0)
(-0.011433 1.43695 0)
(-0.0100669 1.31351 0)
(-0.0244346 1.30163 0)
(-0.012123 1.28624 0)
(1.03511 -0.00599491 0)
(1.0198 0.0161795 -9.11132e-22)
(0.825709 1.2796 2.6208e-19)
(1.00223 0.000331003 -6.47468e-19)
(1.00406 0.00526734 7.58146e-19)
(1.00118 0.00208042 0)
(1.01269 0.0103975 6.44564e-19)
(1.00797 0.00832236 -7.80966e-19)
(1.00855 0.0146857 0)
(-0.0237553 2.60047 0)
(-0.0262298 2.57955 -2.22157e-20)
(-0.023249 2.5939 1.56696e-20)
(1.24003 0.270496 5.81655e-19)
(1.16411 0.0880265 0)
(0.039392 3.07876 -8.85948e-19)
(0.0646973 2.85762 -6.44568e-20)
(0.136375 3.1922 1.34816e-18)
(0.132307 3.21905 -1.87872e-19)
(0.131792 3.22883 0)
(0.0190027 3.13702 2.28507e-19)
(0.0731706 3.16018 8.73689e-19)
(0.0664891 3.18451 -4.30906e-19)
(0.021383 3.13022 0)
(0.550034 0.279798 0)
(0.481841 0.298427 0)
(1.15216 0.70572 1.26533e-19)
(1.14486 0.827588 -1.08753e-19)
(1.2074 0.592023 0)
(1.23444 0.525253 0)
(1.016 0.0134131 -1.20138e-18)
(1.01491 0.0143016 1.50835e-18)
(1.02543 -0.00978057 0)
(1.02349 -0.0118295 0)
(1.00643 0.00266986 0)
(1.01042 0.00377867 0)
(1.00458 0.00188232 0)
(1.00978 0.00627922 0)
(1.0078 0.00597175 0)
(1.0045 0.00474213 0)
(0.101906 1.37301 0)
(0.0990716 1.33446 0)
(0.132435 1.40965 0)
(0.150121 1.41347 0)
(0.1453 2.58707 0)
(0.184652 2.6578 -4.23591e-19)
(0.101713 2.64196 0)
(0.0854255 2.64511 1.98858e-19)
(0.0393771 2.66848 -1.47783e-19)
(0.0238131 1.3344 0)
(0.033618 1.24874 0)
(0.0258384 1.34502 0)
(0.047106 1.26982 0)
(0.00520332 1.98005 5.45386e-21)
(-0.0193133 2.59949 -2.32423e-20)
(-0.0071002 2.65537 1.08569e-20)
(-0.0170051 2.67553 0)
(-0.022414 2.60523 5.07225e-21)
(-0.0224658 2.6003 1.93848e-20)
(0.0139467 1.97795 -4.72183e-22)
(-0.00679538 2.38546 3.11793e-20)
(-0.0121808 2.40887 -1.2314e-20)
(1.01182 0.0400312 1.21594e-18)
(1.0055 0.0212219 -1.51389e-18)
(1.00401 0.0472825 -1.23892e-18)
(0.978731 0.0378125 1.55909e-18)
(1.06455 0.00873995 0)
(1.04964 -0.00810277 0)
(1.09514 0.0356594 0)
(1.07475 0.0133294 0)
(1.07257 0.0011105 0)
(1.14106 0.0848219 0)
(1.11265 0.0455131 0)
(1.11692 0.0331709 0)
(-0.0266279 2.42364 1.84328e-21)
(-0.0161074 2.01426 0)
(-0.0189754 2.21269 0)
(-0.0202917 2.59363 -1.36022e-20)
(-0.0173608 2.60379 2.91847e-22)
(0.00215702 1.59104 -4.44034e-20)
(-0.0102323 1.51871 4.52781e-20)
(-0.0182461 1.40753 0)
(-0.022737 1.41507 0)
(-0.0306673 1.40923 0)
(-0.00146161 1.32907 0)
(0.0163386 1.2426 0)
(0.388344 1.50486 2.69465e-19)
(0.431827 1.50544 1.44211e-19)
(0.596531 2.4377 -2.41087e-19)
(0.396766 2.53529 7.0923e-19)
(0.348144 2.04553 7.30174e-20)
(1.0211 -0.00808495 0)
(1.01552 -0.00972771 0)
(1.01493 -0.0154949 0)
(1.00741 -0.00104329 0)
(1.00493 -0.000897027 0)
(1.00779 -0.00466716 0)
(1.00928 -0.00357715 0)
(1.01424 -0.004336 0)
(1.02051 0.0166739 1.17706e-18)
(1.01752 0.0158679 -1.50845e-18)
(1.02081 0.0189702 -1.18614e-18)
(1.01824 0.0175191 1.487e-18)
(0.78902 1.32976 0)
(0.723855 1.38139 2.46505e-19)
(0.902208 1.22971 9.89815e-20)
(0.947937 1.1756 -1.31728e-19)
(1.15065 2.59227 2.88854e-19)
(0.763416 0.123658 6.02487e-19)
(1.16462 0.110957 0)
(1.2145 0.196997 -4.68283e-19)
(1.2021 0.157169 -1.99743e-20)
(1.0058 0.159328 0)
(0.125378 2.96028 5.13809e-19)
(0.101275 2.86601 -1.11963e-18)
(0.00788527 2.37791 7.45803e-19)
(0.109622 -0.181842 -3.00293e-19)
(0.332369 3.41023 -2.19095e-19)
(0.188717 3.30659 0)
(0.232517 3.34566 2.85342e-19)
(0.235618 3.03125 -1.72759e-18)
(0.327723 3.18774 0)
(0.00522046 3.12121 4.47581e-20)
(0.0155733 3.12975 -5.2845e-19)
(0.0136005 3.1258 7.77759e-19)
(0.033772 3.14004 0)
(0.032238 3.14997 0)
(1.20462 2.58899 0)
(0.550438 0.795917 -5.2698e-19)
(1.0715 1.00038 -1.08938e-20)
(1.00751 1.08433 0)
(0.861022 0.978915 -1.09614e-19)
(1.09881 0.900952 2.78755e-20)
(0.252676 0.305642 -8.01489e-19)
(0.637236 0.325443 -1.53689e-20)
(0.522214 0.219195 4.0642e-19)
(0.500155 0.336364 2.89843e-20)
(0.380695 0.25899 -1.16016e-18)
(0.588066 0.325627 0)
(0.704706 0.432703 6.62891e-19)
(0.702089 0.433021 0)
(0.543682 0.340742 0)
(0.455422 0.236811 0)
(0.833406 0.633672 4.07105e-19)
(1.24148 0.292989 -4.89089e-19)
(1.24233 0.433079 0)
(1.25034 0.373012 0)
(0.669728 0.195969 6.22885e-19)
(0.877348 0.564275 -3.71423e-19)
(0.776539 0.542782 6.6319e-19)
(0.963274 0.45356 -7.34507e-19)
(1.01923 0.0150725 8.09062e-19)
(1.01753 0.0144157 -8.12723e-19)
(1.01574 0.0155031 0)
(1.03659 -0.00553438 0)
(1.02998 -0.00832705 -7.60963e-19)
(1.02803 -0.0119249 7.53401e-19)
(1.02491 0.0107022 0)
(1.0234 0.0144417 0)
(1.01143 0.00420763 0)
(1.01417 0.00922909 0)
(1.01519 0.00423926 0)
(1.01429 0.00294793 0)
(0.07299 1.35637 0)
(0.0803562 1.3005 0)
(0.149344 1.39179 4.68584e-21)
(0.282729 1.48579 8.81105e-20)
(0.177503 1.45646 1.85049e-19)
(0.209642 1.46171 -3.01791e-19)
(0.177929 1.41758 0)
(0.136511 1.59978 -7.47418e-20)
(0.119958 1.57988 0)
(0.343821 1.9939 -1.06186e-19)
(0.340339 2.33104 6.16608e-19)
(0.196166 1.46797 6.51504e-20)
(0.269947 1.40301 2.17842e-20)
(0.203183 1.39631 -1.7589e-20)
(0.279876 1.34566 -1.08953e-19)
(0.243179 1.57813 0)
(0.269575 1.61453 1.16624e-19)
(0.0313794 2.25196 -2.97643e-20)
(0.0443365 2.65737 0)
(0.0669884 2.38786 1.38555e-19)
(0.0638016 2.40834 0)
(0.0700282 2.65865 -2.20372e-19)
(0.0497642 2.68769 0)
(0.0309587 1.4533 3.58568e-20)
(0.0372588 1.49941 0)
(0.0354578 1.4178 0)
(0.031091 1.42449 -4.04644e-20)
(0.00163871 2.64149 -1.64561e-20)
(0.0304581 2.68682 1.65884e-19)
(0.0112644 2.7123 1.1601e-21)
(0.00702095 1.84029 -9.10307e-21)
(-0.000160991 1.69487 -4.78038e-21)
(0.020288 1.3103 0)
(0.0310669 1.2227 0)
(0.0463462 1.59764 -2.64514e-20)
(0.0363857 1.4791 -3.26206e-20)
(0.0399814 1.54146 4.07032e-20)
(0.0415172 1.62086 0)
(-0.0298872 2.26493 1.07056e-19)
(-0.0308695 2.5403 -4.44855e-20)
(-0.0167751 2.43869 5.29105e-21)
(-0.000584409 1.85555 1.10317e-20)
(-0.0254035 2.49098 4.76381e-21)
(-0.019621 2.43556 -7.63834e-21)
(1.01894 0.0223708 -8.06762e-19)
(1.01554 0.0287362 8.09903e-19)
(1.01291 0.0183894 0)
(1.00904 0.0715913 1.13531e-18)
(0.991607 0.0621055 -1.26718e-18)
(0.950831 0.0561062 1.41684e-18)
(1.01243 0.112125 -1.51079e-19)
(1.04304 -0.00550064 0)
(1.05151 -0.00105568 7.2565e-19)
(1.03935 -0.00967011 -7.27151e-19)
(1.07229 0.0433652 -4.31645e-20)
(1.06523 0.0244735 3.72206e-19)
(1.0632 0.0577424 0)
(1.05413 0.0511041 -1.33921e-19)
(1.03215 0.0424997 0)
(1.02658 0.0385788 0)
(1.0279 0.0138554 0)
(1.0239 0.0166785 0)
(1.04027 0.033358 2.75781e-19)
(1.03891 0.0272159 -6.09661e-19)
(1.05144 0.0349603 -2.92237e-19)
(1.04839 0.0350516 -3.21904e-19)
(1.07178 0.0661365 6.28227e-19)
(1.09739 0.0539118 0)
(1.10696 0.0983847 0)
(-0.0255872 2.26945 6.01708e-20)
(-0.0259084 2.01983 1.7082e-21)
(-0.0218962 2.02712 0)
(-0.0268659 2.43782 -5.98815e-20)
(-0.0228118 2.39456 -3.47077e-21)
(-0.0333551 2.4643 6.50334e-21)
(-0.0201253 2.61285 -1.70155e-20)
(-0.0230473 2.55443 4.8947e-22)
(-0.0216662 2.50647 -5.0826e-21)
(-0.0154583 2.60671 1.32916e-20)
(-0.0203695 2.60875 -1.46495e-20)
(-0.00625133 1.52054 -9.53881e-22)
(0.0025658 1.63733 -4.27781e-20)
(0.37351 1.45351 -1.13057e-19)
(0.373445 1.3858 4.37149e-20)
(0.66469 1.43112 -2.38397e-19)
(0.530702 1.49809 -1.41518e-19)
(0.588633 1.46421 0)
(0.592266 2.41487 2.07716e-19)
(0.66085 2.41094 3.38262e-19)
(0.410357 2.50408 8.81621e-20)
(0.401648 2.52813 -6.11938e-19)
(0.509101 2.46869 6.17625e-19)
(0.552328 2.45153 0)
(0.486708 2.50946 -5.60271e-19)
(0.247766 2.58149 1.14433e-18)
(0.354004 2.55345 -7.67446e-20)
(0.283155 2.64317 -1.58815e-18)
(0.947368 2.36759 7.31733e-19)
(0.837294 2.3733 0)
(1.01109 0.00056287 2.63733e-20)
(1.01538 -0.00533346 -2.13912e-20)
(1.0177 -0.0034296 -3.90694e-19)
(1.01507 -0.000792632 3.92835e-19)
(1.01249 0.00131163 0)
(0.652391 1.29439 0)
(0.676308 1.18846 0)
(0.790736 1.10804 0)
(0.669666 1.15143 0)
(1.18101 2.60572 6.03849e-20)
(1.06859 2.35245 0)
(0.831028 2.15519 3.93869e-21)
(0.821757 2.42206 0)
(0.920409 2.51603 -4.2832e-19)
(0.955108 2.47226 2.84886e-19)
(0.795702 0.183957 0)
(0.735968 0.15716 1.63347e-19)
(0.90519 0.15334 9.52332e-19)
(0.821185 0.155998 -3.56053e-19)
(0.774186 0.0902535 -1.10143e-18)
(1.0832 0.244292 -8.95685e-19)
(0.999683 0.308621 -1.802e-20)
(0.926542 0.312786 8.62032e-19)
(1.00676 0.237876 7.24671e-19)
(0.94715 0.201915 -1.25966e-18)
(0.908001 0.206397 1.57575e-19)
(0.946627 0.273652 -3.34273e-19)
(0.924261 0.232572 0)
(0.995402 0.198526 6.21112e-19)
(1.04728 0.196998 0)
(1.04507 0.225685 0)
(1.10831 0.122946 2.91179e-19)
(1.07244 0.183243 -1.52005e-20)
(1.07664 0.24423 -1.58398e-19)
(1.10203 0.209903 0)
(1.02089 0.0469319 6.22205e-19)
(1.04036 0.0601301 7.76251e-19)
(1.03367 0.045356 -6.18329e-19)
(1.04245 0.0680649 -5.20812e-19)
(1.01694 0.0764157 -7.99887e-19)
(0.983545 0.161654 0)
(0.988855 0.106712 0)
(0.965936 0.0771771 -5.04098e-19)
(0.903654 0.0980855 2.00644e-19)
(1.04042 0.109124 7.19377e-19)
(1.06966 0.126335 -8.3985e-19)
(1.07685 0.159089 7.49913e-19)
(1.0321 0.153789 0)
(1.07516 0.113668 0)
(1.05416 0.0943001 -3.44236e-19)
(1.04472 0.100064 -5.86983e-19)
(0.577988 1.04815 1.44076e-19)
(0.600413 1.36986 -4.60917e-20)
(1.15129 2.72254 -2.34147e-19)
(1.21639 3.06493 3.67862e-21)
(1.24233 2.70454 -1.32541e-19)
(1.27 2.68722 -2.65191e-20)
(1.19632 2.3265 -1.13977e-20)
(1.20415 2.9685 -9.98153e-20)
(1.22474 2.93408 2.44138e-19)
(1.20612 3.21701 -1.39564e-19)
(1.36491 2.94671 1.92754e-19)
(1.35246 2.86434 0)
(0.573832 0.806503 -5.09747e-20)
(0.0939438 1.21289 5.60619e-19)
(0.565625 0.312326 5.29439e-19)
(0.398689 0.0569713 5.65386e-19)
(0.435566 0.306894 6.58437e-19)
(0.538059 0.426635 -1.07089e-18)
(0.54188 0.420569 8.76098e-19)
(0.435639 0.27882 -3.30424e-19)
(0.275695 0.204418 7.42404e-19)
(0.699285 0.27187 -3.60263e-19)
(0.653756 0.293732 0)
(0.583883 0.20891 6.21177e-21)
(0.741174 0.516967 3.58998e-19)
(0.724452 0.488223 -1.30476e-18)
(0.618807 0.450152 8.76336e-21)
(0.608252 0.439984 0)
(0.699744 0.720875 3.96634e-19)
(0.861871 0.785163 3.92631e-19)
(0.786933 0.868741 -4.59612e-19)
(0.907518 0.822281 -1.532e-19)
(0.938998 0.867626 -3.68678e-20)
(0.946019 0.867384 3.77544e-20)
(0.87253 0.667734 -6.7463e-19)
(0.95233 0.719875 1.42234e-19)
(1.01296 0.734561 0)
(1.00348 0.710718 -1.92117e-19)
(1.02968 0.349647 2.12042e-19)
(1.15146 0.309821 2.88098e-19)
(1.07125 0.282041 3.66054e-19)
(1.02044 0.382686 -4.31376e-19)
(1.06985 0.44515 0)
(1.12622 0.424941 0)
(0.920852 0.385898 1.28807e-21)
(0.835078 0.319981 0)
(0.885932 0.319512 4.06929e-19)
(0.909892 0.320955 -8.38671e-21)
(0.958405 0.457392 2.04576e-18)
(0.920252 0.513626 5.2497e-19)
(0.923964 0.480025 -5.60518e-19)
(0.837409 0.468993 6.02407e-19)
(0.820513 0.463698 3.61366e-19)
(0.788547 0.44609 -3.54635e-19)
(1.02744 -0.000136259 6.5092e-19)
(1.02007 0.000159721 0)
(1.01858 0.00108307 4.24437e-19)
(1.02181 -0.00143846 -9.6149e-19)
(1.0224 0.00463049 4.67092e-19)
(1.02033 0.0116826 -9.7814e-19)
(1.02122 0.0110824 0)
(1.02044 0.0113215 -2.03867e-19)
(1.01595 0.00794115 5.1143e-19)
(1.01658 0.0107575 -2.55255e-19)
(1.01729 0.0101183 1.87919e-19)
(0.0367971 1.33252 0)
(0.0438502 1.38895 0)
(0.053316 1.33274 0)
(0.0607824 1.27734 0)
(0.0762937 1.40612 -4.21523e-20)
(0.0866536 1.37186 1.95574e-20)
(0.115127 1.54996 -1.66232e-20)
(0.108573 1.39514 -3.10319e-21)
(0.0417689 1.48416 1.75388e-20)
(0.0454019 1.47787 -1.34912e-20)
(0.06932 1.39377 -1.12356e-20)
(0.0618422 1.39446 4.27998e-20)
(0.056458 1.37162 6.41739e-21)
(0.0468855 1.39551 3.58046e-21)
(0.107624 2.35506 -1.53116e-19)
(0.096349 2.40423 0)
(0.169353 2.02947 1.10239e-19)
(0.114798 1.70211 4.15089e-20)
(0.234627 2.02775 -9.12509e-20)
(0.198618 2.41716 0)
(0.261397 2.3671 -6.11769e-19)
(0.30152 2.36479 4.32044e-19)
(0.228339 1.98716 -2.54225e-19)
(0.154989 2.14534 1.71913e-19)
(0.141252 2.25101 0)
(0.0195357 1.87577 5.18071e-21)
(0.00188031 2.37994 -3.17921e-20)
(0.00721127 2.13836 0)
(0.0122942 2.44429 -1.36734e-20)
(0.030066 2.28683 9.16143e-21)
(0.019298 1.43231 -7.98271e-21)
(0.0182416 1.41465 1.36201e-19)
(0.0163545 1.42362 -4.50335e-20)
(0.0241804 1.42954 -3.78211e-20)
(0.0290593 1.45722 0)
(0.011937 1.40796 0)
(0.00563977 1.31035 -6.23215e-20)
(0.00878119 1.4019 1.80707e-20)
(0.0143897 1.3992 0)
(0.0141095 1.3 -4.55393e-20)
(0.0276543 1.21335 9.34935e-20)
(1.04086 0.0121613 0)
(1.04712 0.00844435 -6.81022e-20)
(1.03893 0.0227253 -4.91238e-19)
(1.04862 0.0214067 0)
(1.05247 0.0211918 0)
(1.03656 0.0124381 -6.81941e-21)
(1.03124 0.0122814 7.89523e-19)
(1.03177 0.0173285 9.57536e-19)
(1.02556 0.0212802 0)
(1.02251 0.0218775 0)
(1.03541 0.0263288 4.90059e-19)
(1.0259 0.0281038 0)
(1.02403 0.0277257 0)
(-0.017217 2.02269 0)
(-0.000571054 1.66527 -3.91105e-21)
(-0.00471141 1.76786 -3.20315e-20)
(4.97781e-05 1.40947 0)
(-0.00444353 1.57251 -2.40942e-20)
(-0.0105241 1.48678 1.50179e-20)
(-0.00782521 1.42795 0)
(0.386704 1.63019 0)
(0.37654 1.31098 -8.48184e-20)
(0.29942 1.33874 0)
(0.428207 1.30948 2.07205e-20)
(0.479161 1.4757 0)
(0.459654 1.41969 1.98004e-20)
(1.03545 2.66796 -1.54764e-20)
(0.967537 2.39596 -9.19439e-19)
(0.920556 2.18486 1.02845e-18)
(0.851412 2.36502 2.43408e-19)
(0.846948 2.47673 0)
(0.916436 2.47288 0)
(0.930676 2.36097 0)
(0.909694 2.3507 -9.50271e-19)
(0.684728 2.43992 -4.01138e-19)
(0.798786 2.42937 -9.89062e-20)
(0.808492 2.40365 7.51343e-20)
(0.694468 2.38386 0)
(0.799822 2.37904 0)
(0.75783 2.39271 -3.70131e-19)
(0.766059 2.46662 0)
(0.638234 1.09561 0)
(0.479097 0.891831 -5.27306e-19)
(0.575789 0.942834 -3.32728e-20)
(0.517691 1.02636 0)
(0.518101 0.966233 7.88181e-19)
(0.80729 0.890756 -1.29973e-19)
(0.815118 1.02544 0)
(0.790717 0.992447 1.85437e-19)
(0.675826 1.03622 0)
(0.676439 0.939303 0)
(1.16095 2.74546 -2.33799e-19)
(1.13829 2.80913 -1.01502e-19)
(0.926086 2.32172 1.08233e-19)
(0.894167 2.30153 -8.52457e-20)
(1.12682 2.71819 0)
(1.08101 2.68751 1.02536e-19)
(1.08576 2.47051 -3.15296e-19)
(0.980097 2.22388 -2.98806e-20)
(0.489508 1.3221 0)
(0.506357 1.05549 -1.2695e-19)
(0.580719 1.16927 0)
(0.848507 0.251548 0)
(0.756083 0.200513 0)
(0.661868 0.154717 0)
(0.839378 0.252459 -6.32909e-19)
(0.726094 0.245598 3.751e-19)
(0.922069 0.0913479 -4.13418e-19)
(0.924298 0.133337 0)
(0.912538 0.142263 1.7866e-19)
(0.848589 0.118076 7.14307e-19)
(0.812342 0.0790272 -4.47548e-19)
(1.15054 3.34142 -7.10091e-19)
(1.20021 3.26127 0)
(1.14796 3.37087 -1.48083e-18)
(0.63692 3.53315 1.25447e-18)
(0.856375 3.10368 6.66025e-20)
(0.525241 0.779997 6.10038e-19)
(0.420112 0.777538 0)
(0.291625 0.332201 -1.47429e-19)
(0.485054 0.651379 8.54969e-19)
(0.575959 0.323443 -1.88914e-19)
(0.514709 0.463375 2.26815e-19)
(0.672493 0.519595 4.82949e-19)
(0.721232 0.561283 0)
(0.671167 0.571983 0)
(0.638404 0.529348 0)
(1.01249 0.621045 8.75739e-20)
(0.925744 0.562889 -5.11309e-19)
(0.951744 0.594003 3.84838e-19)
(0.980377 0.533766 -3.9665e-19)
(1.08988 0.500107 0)
(1.0989 0.591971 -9.62418e-20)
(0.856073 0.419179 -8.32359e-19)
(0.854151 0.407497 -1.03138e-18)
(0.78306 0.400574 6.31201e-19)
(0.792277 0.388908 -6.41712e-19)
(0.841776 0.344903 -5.21316e-19)
(0.786979 0.340624 6.37163e-19)
(1.02679 0.00620205 -4.97603e-19)
(1.02648 0.00643815 1.01315e-18)
(1.02957 0.00034358 6.30804e-19)
(1.03376 0.00123837 -7.59778e-19)
(1.03397 0.00939473 0)
(1.03024 0.01008 -1.23612e-18)
(0.0645387 1.63834 1.94198e-20)
(0.0532149 1.59155 0)
(0.0916118 1.68733 1.32002e-19)
(0.0988077 1.66853 -1.17121e-19)
(0.0928401 1.55126 2.97423e-20)
(0.0921291 1.55317 0)
(0.0140714 1.69735 0)
(-0.00127063 1.51602 1.07555e-20)
(-7.18676e-05 1.46286 -9.66661e-21)
(-0.00660877 1.56888 5.53243e-21)
(0.00321355 1.88724 1.58064e-20)
(-0.00873583 1.94076 -3.8534e-21)
(0.49509 1.35222 -2.84348e-19)
(0.492735 1.35179 3.12552e-19)
(0.455845 1.30585 -3.73952e-20)
(0.438307 1.28105 8.13122e-21)
(0.644157 1.31343 0)
(0.558473 1.40466 1.0163e-19)
(0.574979 1.4111 -9.894e-20)
(0.470174 1.29945 3.6508e-20)
(0.525672 1.24501 0)
(0.576359 1.2063 0)
(0.652058 2.39991 5.89206e-19)
(0.667974 2.44162 1.26705e-18)
(0.712293 2.45231 -8.73133e-19)
(0.608365 2.42609 -2.02526e-19)
(0.558938 2.51624 2.85774e-19)
(0.508349 2.49138 -7.6195e-19)
(0.976611 2.36765 -5.75837e-19)
(1.00975 2.37953 0)
(0.92362 2.16288 -6.59296e-19)
(1.05235 2.66642 0)
(1.05476 2.65296 0)
(0.590144 2.24889 -1.41011e-19)
(1.03211 3.1484 1.16723e-19)
(0.903539 3.01945 -1.83258e-20)
(0.253625 0.816643 0)
(0.275206 0.65401 -3.1873e-19)
(0.450496 0.616205 -3.22688e-19)
(0.370823 1.99228 0)
(0.4574 2.77569 -4.63676e-20)
(0.409253 2.53799 0)
(0.726297 0.671222 -8.36887e-19)
(0.809466 0.694448 1.11431e-18)
(0.82892 0.634639 -1.10057e-18)
(0.702035 0.637151 -1.06707e-19)
(0.755289 0.597225 -4.36246e-19)
(0.996978 2.74572 -8.87822e-20)
(1.0398 2.81018 -1.74442e-19)
(0.62557 2.10694 7.28269e-19)
(0.576909 1.67646 -5.1787e-19)
(0.689932 1.8806 -4.18411e-19)
(0.983764 2.43052 -1.13519e-19)
(0.991631 2.42403 3.05111e-19)
(0.641834 1.81136 2.90429e-20)
(0.435402 1.29962 1.48015e-19)
)
;

boundaryField
{
    wall-4
    {
        type            noSlip;
    }
    velocity-inlet-5
    {
        type            fixedValue;
        value           uniform (1 0 0);
    }
    velocity-inlet-6
    {
        type            fixedValue;
        value           uniform (0 3 0);
    }
    pressure-outlet-7
    {
        type            zeroGradient;
    }
    wall-8
    {
        type            noSlip;
    }
    frontAndBackPlanes
    {
        type            empty;
    }
}


// ************************************************************************* //
