/*--------------------------------*- C++ -*----------------------------------*\
| =========                 |                                                 |
| \\      /  F ield         | OpenFOAM: The Open Source CFD Toolbox           |
|  \\    /   O peration     | Version:  2206                                  |
|   \\  /    A nd           | Website:  www.openfoam.com                      |
|    \\/     M anipulation  |                                                 |
\*---------------------------------------------------------------------------*/
FoamFile
{
    version     2.0;
    format      ascii;
    arch        "LSB;label=32;scalar=64";
    class       volScalarField;
    location    "89";
    object      p;
}
// * * * * * * * * * * * * * * * * * * * * * * * * * * * * * * * * * * * * * //

dimensions      [0 2 -2 0 0 0 0];

internalField   nonuniform List<scalar> 
918
(
0.559556
1.16799
0.00055743
0.559026
-0.0127153
1.135
-0.513276
0.651692
0.539766
-0.105373
-0.0562744
0.541734
0.995528
0.761161
-1.12409
-0.0140889
0.653172
-0.381745
0.538902
-0.0749569
0.673308
0.546296
0.549319
0.539896
0.598943
0.734257
0.876442
0.0318443
0.0127967
0.00755377
-0.0121631
-0.0390287
-0.0338988
1.01867
1.06973
1.09242
0.507471
0.335626
-0.378705
-0.452984
-0.43852
-0.538065
0.654015
0.655758
-0.216729
0.653191
0.650785
0.526765
0.539137
0.540052
0.541057
0.540049
0.541426
0.403281
-0.106503
-0.137861
-0.0861544
-0.0793345
0.0489925
-0.0548882
-0.0559946
-0.0556954
-0.0572817
0.45651
0.536221
0.532829
0.54596
0.55522
1.10754
1.07949
1.10563
1.01917
1.03573
0.973542
0.946209
0.78211
0.803759
0.745771
0.734051
-1.55161
-2.49561
-0.538302
-0.289869
-0.0108385
-0.0123849
-0.00710359
0.650534
0.651771
0.653455
0.655096
1.0791
-0.378728
-0.481796
0.539047
0.537859
0.546161
0.546863
0.542885
0.541974
-0.065607
-0.0627788
-0.0618763
-0.0697289
-0.0668779
0.644479
0.651515
0.540422
0.537423
0.562972
0.583645
0.573367
0.278986
0.609724
0.625846
0.569577
0.730522
0.721928
0.731838
0.849972
0.813442
0.913752
0.936921
0.0191505
-0.000445928
-0.018387
-0.021446
-0.0206748
0.503297
0.495829
0.523749
0.510913
0.513424
0.253136
0.120799
0.420067
0.444483
-0.298424
-0.367044
-0.430894
-0.460703
-0.568404
0.615792
0.656541
0.653826
-0.225882
-0.153922
-0.288979
-0.0805042
-0.14395
0.517008
0.524038
0.519027
0.534606
0.529067
0.531032
0.543416
0.540484
0.542045
0.465302
0.588617
0.329588
0.293819
-0.242967
-0.153272
-0.241591
-0.069007
-0.0662778
0.0634835
0.0894557
0.0354048
0.0233717
-0.0624685
-0.0578628
-0.0598085
-0.0572326
-0.0589406
0.449212
0.437921
0.469235
0.476815
0.522965
0.524375
0.528756
0.526836
0.89711
0.919334
0.926932
0.900822
-3.47713
-6.24416
0.0319041
0.167073
-0.00713542
-0.0101122
0.00176812
-0.00638698
-0.000555417
-0.00230639
-0.0125723
-0.0139807
-0.00869866
-0.00759463
0.645675
0.646257
1.00228
1.01053
0.976856
0.930077
0.527337
0.52937
0.534839
0.530741
-0.0596748
-0.0611631
-0.0599954
0.650364
0.648083
0.649548
0.240216
0.149826
0.33034
0.359698
0.639377
0.628749
0.63774
0.628558
0.664459
0.944249
0.962417
0.960736
0.969107
1.01323
1.02972
0.994926
0.482674
0.492693
0.487621
0.526555
0.524479
0.525315
0.52178
0.522766
0.520925
-0.0288172
-0.406324
0.491365
0.507255
0.493926
0.495246
0.696088
0.774946
0.654767
0.655576
0.655122
-0.0103658
-0.0689568
0.248781
0.21428
0.38838
0.425015
0.403824
0.868148
0.828719
0.878799
0.852084
0.813633
0.83915
-0.357953
-1.84898
-0.972703
0.513058
0.329151
0.415211
0.00490099
-0.0120562
-0.00729849
1.00322
1.07424
0.64434
0.819899
0.821813
0.701787
0.731628
0.786551
0.713277
0.747303
0.781335
0.762673
0.571259
0.504545
0.521551
0.843766
0.899203
0.119066
0.0563109
0.0126018
0.108791
0.166747
0.14044
1.03391
0.95233
1.02194
0.537185
0.537911
-0.00876034
-0.0245089
0.542179
0.542237
-0.014371
-0.00415657
0.398928
-0.831163
0.0963247
0.530798
0.520615
0.537784
-0.0907692
0.35463
-0.0555309
0.0450825
-0.0134346
0.532115
0.467683
0.426659
-0.00357134
-0.0237651
-0.0648524
-0.211811
0.534855
0.533159
0.537251
0.538186
0.538871
-0.0227548
-0.01895
-0.0124808
-0.0587972
-0.0501566
-0.0657604
0.50164
0.520745
-0.170577
0.537403
0.539542
0.539359
0.532649
0.538265
0.536527
-0.0145417
-0.0185703
-0.0211742
0.219733
0.353159
0.634897
0.718967
0.607942
0.386291
0.15371
0.540322
0.602525
0.509694
0.661415
0.652014
0.648773
0.16172
0.0107805
0.171292
0.113172
0.528655
0.527397
0.518865
0.515818
0.532652
0.530762
0.535329
0.532361
0.535315
0.536689
-0.0475203
-0.073504
-0.0832412
-0.149956
0.309407
0.569981
0.254604
0.283733
0.140047
-0.0509029
-0.052595
-0.0529791
-0.0593833
-0.00141573
-0.0292403
0.0394049
0.0389363
0.00943396
-0.016128
-0.0123078
-0.0240933
-0.0169679
0.525398
0.525309
0.53017
0.538726
0.477375
0.481155
0.445837
0.466728
0.45186
0.390233
0.425935
0.401
-0.00896821
-0.00182568
-0.00546682
-0.0223645
-0.0188673
-0.039897
-0.0370237
-0.0316362
-0.0281981
-0.0351905
-0.0579457
-0.0624961
-0.169422
-0.285675
0.98899
0.90794
0.141656
0.523993
0.530459
0.527215
0.532159
0.535289
0.536082
0.533782
0.530325
0.521074
0.522777
0.51928
0.520205
-0.100956
-0.243665
-0.0718562
-0.147958
0.14857
0.630455
0.365053
0.299833
0.295381
0.525222
0.903433
0.684379
0.650253
0.636697
-0.346255
0.0378401
-0.28469
0.326679
0.15911
0.635252
0.684275
0.706378
0.654207
0.607613
-0.0950712
0.558215
-0.0763541
-0.023228
0.179491
0.0533266
0.638533
0.640847
0.646744
0.64083
0.649696
0.642796
0.622706
0.62485
0.640566
0.647522
0.480646
0.25039
0.200527
0.162039
0.645476
0.514541
0.563172
0.490022
0.523895
0.526491
0.525166
0.506476
0.514072
0.509587
0.516167
0.519714
0.528357
0.528843
0.524086
0.526216
-0.0543677
-0.0602405
-0.024363
-0.134138
-0.126838
-0.189494
-0.0583735
0.0770831
0.0384043
0.238775
0.341893
0.0538704
-0.0554315
-0.0283404
0.0154402
0.181937
0.210743
0.0741971
0.160567
0.153493
0.13383
0.236829
0.239526
-0.0323298
-0.0330013
-0.0371933
-0.0408706
0.0163891
0.0882794
0.0973889
-0.0130417
-0.0167548
-0.0509086
-0.0540013
-0.0230054
-0.0278813
-0.0235825
0.0043298
-0.0568404
-0.0246275
-0.0109807
-0.013196
-0.0118
-0.0169082
0.520067
0.521857
0.522058
0.531099
0.543215
0.557922
0.523496
0.499648
0.490402
0.493408
0.466313
0.476647
0.472477
0.486124
0.507421
0.515942
0.51425
0.517063
0.499423
0.501122
0.487621
0.491308
0.466344
0.44689
0.434811
-0.0472021
-0.00917045
-0.0175165
-0.0421753
-0.0127421
-0.0243511
-0.0162533
0.00304573
-0.0140683
-0.0146305
-0.0246329
-0.0328089
-0.0326803
-0.0710865
0.0163519
-0.183875
-0.218479
-0.292335
0.891575
1.01575
0.809822
0.582813
0.604309
0.847618
0.931242
0.542499
0.735515
0.758266
0.590211
0.85778
0.528848
0.528441
0.52604
0.525515
0.526737
-0.00446493
0.103037
0.0985887
0.164119
0.280362
0.391014
0.325225
0.199221
0.328514
0.330755
0.622674
0.634546
0.59114
0.615343
0.616319
0.426898
0.502561
0.554247
0.515309
0.567914
0.58975
0.543358
0.576895
0.525599
0.480733
0.476829
0.426595
0.446069
0.421528
0.404738
0.519465
0.496054
0.506995
0.497121
0.519284
0.545432
0.542528
0.565223
0.580258
0.499908
0.45501
0.464264
0.494488
0.456119
0.471597
0.487402
0.238121
0.141004
0.223746
-0.0602394
0.00725673
-0.00396338
-0.0534304
-0.000189615
0.283537
-0.405287
-0.382433
-1.00654
0.50899
0.944351
0.557599
0.53813
0.649417
0.638554
0.643374
0.659399
0.652296
0.633884
0.641618
0.646615
0.590444
0.611629
0.625795
0.623054
0.525782
0.380466
0.380672
0.32768
0.197741
0.238248
0.433471
0.358059
0.28324
0.283287
0.45802
0.344024
0.41491
0.447205
0.378127
0.332749
0.536571
0.602621
0.595664
0.569625
0.478427
0.489718
0.514939
0.548626
0.571785
0.606437
0.515577
0.521539
0.522767
0.520238
0.517501
0.5206
0.520855
0.523439
0.524056
0.527075
0.526144
-0.0515471
-0.0383373
-0.0489313
-0.0602909
-0.0165865
-0.0190888
0.0242657
0.0118
-0.0155645
-0.0110776
-0.0319517
-0.0360686
-0.0331873
-0.0258819
0.103919
0.116343
0.10078
0.0612487
0.252957
0.382064
0.456639
0.33143
0.226382
0.25027
0.268411
-0.0131208
0.0114008
-0.00107078
0.03872
0.0313878
-0.0429424
-0.0476287
-0.0448822
-0.0344991
-0.0264167
-0.0478583
-0.0572665
-0.046207
-0.0499729
-0.0532844
-0.0597466
0.501931
0.495421
0.497016
0.490977
0.489685
0.503877
0.508177
0.510182
0.515712
0.517957
0.508024
0.513464
0.517403
-0.0182174
-0.0417247
-0.0443318
-0.0396914
-0.0396109
-0.0374508
-0.0398188
0.127018
0.0588214
0.0621292
0.014596
-0.118982
-0.060762
0.495467
0.49357
0.481655
0.724218
0.573495
0.494654
0.591515
0.697334
0.280366
0.475731
0.311851
0.890311
0.787818
0.933828
0.544644
0.250979
0.418073
0.456802
0.273105
0.351088
0.324814
0.214794
0.245041
0.285635
0.382876
0.270069
0.248258
0.00481139
0.195461
0.305343
0.287503
0.410404
0.470058
0.272698
0.191717
0.146558
0.607106
0.626395
0.639684
0.612048
0.634795
0.583901
0.575776
0.591228
0.599465
0.593003
-0.735796
-0.441961
-1.39007
-0.717859
-0.259807
0.539312
0.515593
0.773259
0.643267
0.668386
0.653014
0.616595
0.588359
0.614073
0.633772
0.339053
0.449946
0.424734
0.431496
0.334345
0.263842
0.563683
0.561461
0.594769
0.618927
0.590039
0.620788
0.513381
0.5131
0.512565
0.508806
0.507071
0.50941
0.0592023
0.0264962
0.0681403
0.0505648
0.0283208
0.0164286
-0.0201664
-0.0306522
-0.0368507
-0.0353024
-0.0203552
-0.0166258
0.177286
0.11212
0.0334446
0.0616059
0.00101518
-0.0675914
-0.087449
0.0195621
0.116222
0.106226
0.408495
0.656749
0.477059
0.644339
0.487648
0.543263
0.469805
0.460654
0.48484
0.382956
0.463538
0.262143
-0.247465
-0.157376
0.799003
0.808904
0.582867
0.412365
0.178126
0.350975
0.540128
0.468816
0.503583
0.571952
0.558278
0.0391219
0.0933434
0.3904
0.617122
0.246757
0.237363
0.230872
0.418394
0.334867
)
;

boundaryField
{
    wall-4
    {
        type            zeroGradient;
    }
    velocity-inlet-5
    {
        type            zeroGradient;
    }
    velocity-inlet-6
    {
        type            zeroGradient;
    }
    pressure-outlet-7
    {
        type            fixedValue;
        value           uniform 0;
    }
    wall-8
    {
        type            zeroGradient;
    }
    frontAndBackPlanes
    {
        type            empty;
    }
}


// ************************************************************************* //
