/*--------------------------------*- C++ -*----------------------------------*\
| =========                 |                                                 |
| \\      /  F ield         | OpenFOAM: The Open Source CFD Toolbox           |
|  \\    /   O peration     | Version:  2206                                  |
|   \\  /    A nd           | Website:  www.openfoam.com                      |
|    \\/     M anipulation  |                                                 |
\*---------------------------------------------------------------------------*/
FoamFile
{
    version     2.0;
    format      ascii;
    arch        "LSB;label=32;scalar=64";
    class       surfaceScalarField;
    location    "89";
    object      phi;
}
// * * * * * * * * * * * * * * * * * * * * * * * * * * * * * * * * * * * * * //

dimensions      [0 3 -1 0 0 0 0];

oriented        oriented;

internalField   nonuniform List<scalar> 
1300
(
3.75095
5.62643
-3.28155
3.75095
-7.7505
5.62643
-4.41131
4.41131
-0.338294
0.338294
1.87638
1.87457
-2.69409
2.69409
-2.02404
2.02404
-2.52154
2.52154
-5.24647
5.24647
-5.06954
5.06954
4.64876
-4.64876
-6.31656
6.31656
-0.936462
0.936462
-3.69331
3.69331
3.16958
-3.16958
-1.92783
1.92783
0.100086
-0.100086
-0.553467
4.30442
3.19749
3.19749
-2.00672
2.00672
-4.87021
4.87021
6.21803
-6.21803
5.25826
-5.25826
-1.97671
-2.49108
1.80026
-11.4623
-5.95024
-5.95024
-8.44036
8.44036
-2.81393
2.8125
2.94647
-2.94647
-1.76438
1.76438
-4.37561
-0.0357051
-4.37561
4.37947
0.0318374
4.37947
-0.450634
0.112339
-0.450634
4.0179
-4.0179
0.230979
0.107316
0.230979
3.06541
-3.06541
-1.87712
3.75351
1.87383
-1.8719
6.17632
-1.87905
3.75362
-6.01282
6.01282
-2.93987
0.245772
-2.93987
2.4809
0.213198
2.4809
-6.85154
6.85154
-2.08278
0.0587346
-2.08278
1.97086
0.0531824
1.97086
2.88222
-2.88222
-2.62782
0.106277
-2.62782
2.39257
0.128966
2.39257
0.353497
5.27293
-5.97993
8.79243
-5.27293
0.026466
5.20831
0.0381547
5.20831
-5.10614
0.0365994
-5.10614
5.01279
0.0567441
5.01279
4.73127
-0.0825095
4.73127
-4.76923
0.120469
-4.76923
-3.36695
-4.05903
-6.46773
0.151169
-6.46773
-1.02574
0.0892804
-1.02574
0.824265
0.112197
0.824265
-3.68842
3.68842
-4.11631
0.423003
-4.11631
3.12395
0.0456212
3.12395
1.86849
1.88247
5.61944
-5.61944
2.44986
-1.88904
-0.0387873
-1.88904
-2.01217
-3.24609
2.01217
-0.0843427
-0.137218
0.237304
-0.137218
3.15945
0.0380314
3.15945
2.23549
0.157078
-2.23549
0.228774
3.28125
-3.28125
1.33456
0.672156
1.33456
-5.5627
5.5627
4.95732
0.0554712
-4.95732
0.0871085
6.15679
0.0612394
6.15679
-6.19955
-0.0184785
-6.19955
2.52452
-5.0156
-2.65575
6.13343
0.183124
-6.13343
0.183193
2.91846
0.0280074
2.91846
-2.91785
2.91785
-2.98487
0.038408
-2.98487
-2.16291
0.398529
-2.16291
1.46649
0.297892
1.46649
-4.27874
-0.0968708
-4.27874
-4.26782
0.151509
4.26782
0.111651
1.13057
-1.13057
-0.584815
0.134182
-0.584815
-4.14358
-0.135156
4.14358
-0.125676
-3.90481
-0.113097
-3.90481
-3.02464
0.0397657
3.02464
0.0407666
3.11291
0.0465407
-3.11291
0.0475079
-1.87081
3.75328
-1.88014
3.75397
-5.63366
-0.37916
-5.63366
6.32372
-0.310898
6.32372
3.33389
0.359421
-3.33389
0.394025
2.30927
0.171625
2.30927
-6.81231
-0.0392314
-6.81231
6.83804
0.0135076
6.83804
2.17841
0.130862
-2.17841
0.0956305
1.92648
0.0443777
1.92648
2.90297
-0.0207443
2.90297
-2.87606
-0.00616606
-2.87606
2.79014
-2.79014
2.71522
0.0749245
-2.71522
0.0874014
-11.1331
11.1146
-0.0352435
-11.0979
5.17307
5.17307
4.15632
0.574951
4.15632
-4.98903
0.219805
-4.98903
2.6932
-5.34896
3.10784
-6.47478
4.66081
-16.1231
4.28334
-8.34237
6.70703
-6.70703
6.59643
0.110593
-6.59643
0.128707
-1.14417
0.118423
-1.14417
-3.08798
-0.600443
-3.08798
4.32873
-0.64031
4.32873
-3.02788
3.02788
-3.07735
0.0494777
3.07735
0.0466011
1.89236
0.0341267
-1.89236
0.00331363
0.162521
0.0684575
-0.162521
0.0253031
3.49694
-0.21569
3.49694
-3.08159
-0.199666
-3.08159
-1.24422
0.10005
1.24422
0.0903488
-5.81334
0.250638
-5.81334
-11.1908
0.0929235
-11.1526
-6.10663
-6.10663
2.33374
11.1262
-2.89387
0.0178149
2.89387
0.0245879
2.97437
0.0535012
-2.97437
0.0565259
-2.857
0.0668582
2.857
0.06085
-2.53759
0.374678
-2.53759
-1.06784
1.06784
-1.23104
0.163196
1.23104
0.23545
1.40498
-0.27441
1.40498
0.707233
0.117032
-0.707233
0.122418
-3.80155
-0.103253
-3.80155
6.5594
-0.235684
6.5594
-2.96559
-0.115994
2.96559
-0.0626287
-0.0332913
11.1479
-5.13978
0.03364
5.13978
-11.2092
11.2428
-3.20759
0.670006
3.20759
0.948728
5.2831
0.279599
-5.2831
0.294069
6.78982
0.0482177
-6.78982
0.0827922
-2.59576
-0.492218
-2.59576
-5.05279
-0.580866
5.05279
-0.724062
-11.4743
-0.20528
11.6796
-11.4176
6.01862
0.138169
-6.01862
11.381
-1.02836
-0.102206
1.02836
0.0394795
1.73353
-0.328556
1.73353
3.69631
-0.199369
-3.69631
-0.105241
-6.7143
-0.0980145
6.7143
-0.154897
-2.15081
-0.444954
2.15081
-0.417273
-4.26714
4.30517
1.90919
-2.37469
-2.6409
-5.62078
1.85184
1.90144
4.3017
-10.1228
-6.00036
-9.93959
7.26064
-6.96657
-9.23174
9.14923
7.91563
-8.02873
-5.78465
5.83125
6.483
-6.44224
1.87885
1.87466
8.0379
-7.79213
-15.5688
15.1896
7.57956
-7.52083
15.723
-15.7623
-17.8047
17.8529
-5.70725
5.81353
-6.74097
6.73481
-6.9774
6.91478
-2.83248
-3.6423
13.0822
-12.9311
8.64347
-8.68225
-8.63963
9.06264
3.38261
0.922559
3.42915
-1.88213
3.76098
-1.87149
3.78068
2.75427
-5.58675
2.59469
-5.23559
4.39903
4.24444
-4.31468
-1.3061
-5.92502
5.95303
-5.81411
5.87496
9.16639
-9.2021
-1.88518
3.75984
-1.86879
3.77023
-3.42499
-2.35966
3.37937
0.922335
8.04928
5.03297
-8.2324
-1.70719
-8.0512
7.85183
-8.23594
8.03627
-0.433106
5.81894
-5.38584
4.43711
-1.56512
7.38406
5.69552
5.91532
5.86551
-5.58591
1.10106
-6.4869
-6.39979
-2.19786
2.33204
2.08988
-1.98257
6.16528
1.75036
6.0396
-5.77298
-2.25576
-5.87623
3.82037
2.01088
3.86984
4.07857
2.40443
4.11833
3.03039
-3.03602
0.00563103
-3.05673
6.08712
0.723819
-5.41639
-4.49405
4.98364
3.05426
5.19684
-5.56647
-2.22566
-5.17244
-9.51859
-6.05018
-10.0995
10.0608
5.12883
9.74988
-11.9291
11.7742
4.81228
2.76729
4.86546
-4.95962
-2.5612
-4.86399
11.6282
-2.64561
-8.9826
-10.2938
-7.51082
10.2803
5.44271
10.9364
6.91642
11.0192
4.41597
7.21224
-9.85868
2.34786
-3.8681
-1.83916
-3.78069
3.67594
2.13758
3.80491
-4.2177
-2.52327
-4.19989
-4.296
-2.6814
4.31674
2.41806
-4.41858
-3.81736
4.53458
2.3802
4.03952
-10.0399
4.30285
-7.94515
-9.17398
-3.75709
-9.04527
3.55709
2.61021
-6.1673
-2.02965
8.57134
-4.3269
7.26525
-5.21495
-3.46731
-5.21163
-6.90217
-1.73746
-6.75066
-8.85943
8.36721
-9.15534
8.51503
12.4762
-5.62852
-6.84765
-3.96848
-2.47375
3.92097
-0.491825
-3.71045
3.71608
0.0505227
3.8312
4.75376
4.26194
-3.88498
-1.92912
-3.82846
3.82492
2.05004
3.89178
6.85754
2.30885
6.88937
-6.63402
-2.56808
-6.73089
9.01848
-8.61995
2.83111
-2.73106
5.40382
2.63245
-5.18813
-2.86307
6.2074
-3.21982
-2.98757
-12.2036
10.5207
1.68288
-4.81954
-0.382431
-0.482517
-5.4846
-3.74714
5.36413
0.551189
11.0719
7.32476
-5.51128
5.76192
6.1683
6.22377
-0.176015
5.79255
-5.12255
5.25887
-2.6225
-2.63637
5.4922
-5.62735
-1.23869
-5.54655
4.30786
0.412246
1.39518
-1.15788
-1.74553
-0.452326
-1.62311
1.17953
0.910353
1.24799
0.964146
1.36789
-2.94167
0.502336
2.43933
-1.97752
-1.48023
-3.86157
-1.13807
4.99964
5.7487
2.10313
-5.64346
-0.232768
2.50567
-2.39347
-0.814525
-3.04705
2.23466
-3.04919
-3.66296
-2.10191
5.76488
-3.36979
-0.458662
3.31629
0.553552
-3.82731
-2.09771
3.7889
0.329433
-3.12846
6.191
-3.06254
-5.05759
2.52742
3.55969
4.53831
-4.78958
2.44784
2.34173
-1.22989
4.25029
0.946552
4.42191
-6.95974
4.73408
5.81797
3.24467
-6.17739
1.00495
-5.9548
8.55161
-7.38002
-1.1716
4.16899
4.38262
7.04168
5.43449
-5.65933
12.701
-1.2098
-6.17021
7.1646
-3.91993
4.8582
-8.77813
-10.2927
4.12248
-9.10892
10.8831
-1.77414
-3.61571
-8.31336
12.7246
-1.20084
-11.5238
8.54904
-4.29297
-4.41398
8.70695
-6.93857
6.97518
-1.99199
-4.98319
-10.0792
-5.68303
10.1773
1.59692
-9.94388
12.2917
-2.73164
4.1224
0.743056
4.16678
3.30618
-5.49183
2.18565
3.63239
-5.62438
2.07862
-7.57045
-6.71697
12.0491
-5.33209
-10.4741
-9.49487
-0.97919
2.53573
9.75601
-9.45215
7.41031
2.04184
3.30069
0.591086
-3.37561
-0.40508
0.233723
4.51296
-4.74668
4.03863
4.19571
3.26269
1.25027
3.84573
2.1073
-3.87031
-0.329573
-4.16433
1.48293
-1.74627
-3.69522
5.17815
-4.06759
0.372373
-2.74408
-3.49759
6.24167
-4.58324
3.03475
3.15625
5.08479
-4.91378
1.41619
-2.39277
-2.52101
2.6514
-4.39767
1.99514
3.183
4.37534
0.557984
5.87431
6.17475
-8.48451
0.539358
11.2077
-9.50052
2.45988
8.55936
-9.87019
0.375321
-8.66995
1.0015
-5.3284
-5.1658
5.20883
-6.9463
-3.5693
6.22903
0.660343
-6.34068
-0.40998
-6.0219
-2.83752
-6.46686
-3.03663
-6.11871
-8.69596
-1.64806
-7.0479
6.71915
-6.66766
-3.43179
7.39173
1.12331
-7.39549
7.29329
-7.47362
7.14507
0.0954844
3.6206
4.35742
1.88367
-2.39071
4.27438
-5.1299
7.43875
-8.74154
3.61164
4.21953
-6.78761
-4.52201
5.00949
4.00899
5.30738
8.86136
-10.32
1.45864
-10.6213
11.9543
-1.33302
-16.3703
5.74902
-7.50892
2.43261
0.398507
2.55103
0.541017
2.4988
-3.03981
-2.19005
-2.0997
-2.44331
-3.46451
5.90782
1.0822
-3.53248
2.45028
-3.56774
4.64994
-0.221535
-3.31095
5.26543
-2.76664
5.66394
-3.78927
1.87467
3.44076
5.75426
-2.3135
4.3957
-1.76325
1.93188
-4.24538
-1.53263
-2.95467
5.09225
-3.287
3.65937
-0.345573
4.00495
-4.04569
0.825865
-0.782997
3.41271
3.64149
4.31688
-3.06662
2.91607
-4.67932
-1.32931
-4.12133
-0.938329
-0.252193
-3.68914
3.94134
5.96096
-6.21315
-5.2251
9.50895
-4.28385
7.67782
-5.37231
-2.3055
-4.24099
-4.37897
3.86631
1.92624
9.60406
0.207136
-5.57945
-4.91541
-3.96668
3.09621
2.16266
-1.693
3.37589
2.17552
-0.780337
0.433666
0.814323
1.76929
-1.33563
0.318253
1.45104
-0.839627
1.68943
0.816236
-1.80647
0.183351
-1.35486
3.58953
1.08447
-1.99482
0.659193
0.978221
-3.60072
5.08354
-2.69563
-2.3879
6.06176
1.14398
-3.83962
4.40257
-3.99032
2.40616
-3.54423
-1.43346
-5.42378
-3.67342
-2.51392
4.9642
-3.3939
5.49703
1.30123
-5.26427
6.5655
-3.73186
1.62995
-3.03958
3.85581
-0.918075
-2.1215
2.90163
2.86325
-3.09171
0.0446603
-0.190079
2.40265
-2.59273
-0.646536
-2.62406
-4.57373
4.90316
-2.10508
4.55293
2.1693
-1.91734
6.47027
1.80863
-3.72597
-3.24896
-3.70762
-1.38424
3.15407
-0.569018
-4.29498
-5.55221
4.16412
0.257798
-7.07615
7.89363
-0.817473
-4.0219
-0.712188
4.88118
-6.09332
0.468939
-4.0147
3.87892
4.82547
5.08327
-11.3028
-0.220965
-6.174
1.11923
-7.29323
5.50185
-3.52607
7.64855
-10.2982
6.86645
-9.17494
6.47696
-0.816274
6.23616
-4.0505
2.74645
-8.42948
-6.83256
5.56511
-2.79782
6.30817
-3.17748
9.48565
-5.90912
5.34359
4.14206
-1.02224
-4.18939
-5.3551
4.33286
-0.0115168
4.15526
4.98042
-2.87313
4.65085
2.27009
-4.66286
-2.12758
-6.49631
1.83346
-3.34006
-1.9214
3.75486
3.16338
3.75447
1.23385
-3.34939
7.20216
-8.18135
-1.87007
-3.29572
5.34842
-1.01556
3.44729
-6.74301
-1.88111
4.77515
-0.776409
-3.99874
0.853379
-4.42268
1.67699
-6.09966
5.26931
-5.67929
2.22104
-9.72996
-5.17445
-5.13497
-2.25679
-5.21683
-7.55107
5.29427
-1.80204
5.49124
-8.47905
7.70264
-3.47523
8.7695
-5.41754
-1.04932
5.83482
1.31025
10.0798
0.228556
-4.75056
-1.92765
3.82772
-1.90007
1.16855
-3.46059
0.367135
2.50101
3.56074
-6.80887
0.0212662
-4.7293
-3.91033
7.91932
5.59862
11.5596
1.23958
9.09714
-1.17782
10.3367
4.12957
4.36502
-2.97682
4.43545
0.964521
4.57616
-0.927574
2.80224
1.62345
1.71273
0.680738
2.30391
1.33758
3.12977
0.0899607
-2.00974
4.61496
-8.58165
-0.96449
-8.00669
1.14254
5.70194
-4.5594
2.90753
-0.744874
1.00746
-0.146086
-1.14799
1.29408
-2.78246
-1.92833
-0.477288
-1.6948
2.35399
1.89473
-1.8767
-0.905756
0.349789
-4.02321
3.19444
-3.14978
-0.286535
6.27897
-2.81258
0.219848
-1.18263
-2.40421
-2.85653
2.67318
6.17639
0.293882
3.11385
5.19705
3.09934
0.226212
3.87945
-5.65359
-3.691
-5.87455
-0.372701
4.50847
1.76386
7.99215
5.90593
4.89036
-1.85265
-10.034
6.50027
-2.06482
5.16725
-1.16852
-4.93115
5.05812
2.38064
-5.71846
0.0391706
-4.89198
-6.9568
-0.509732
8.21237
-9.57002
8.52071
5.68318
1.36472
-4.3939
-0.741067
4.23071
0.134308
10.471
-1.13029
-6.69045
7.82074
-4.57165
3.60716
0.727005
2.64888
2.02108
1.27621
-5.41424
-9.97365
-2.07547
-1.52525
-4.46337
0.536271
-2.431
6.21053
-2.60336
3.90502
5.21738
6.22484
-2.1257
-4.08745
6.40956
-2.50453
3.72031
)
;

boundaryField
{
    wall-4
    {
        type            calculated;
        value           uniform 0;
    }
    velocity-inlet-5
    {
        type            calculated;
        value           uniform -3.75095;
    }
    velocity-inlet-6
    {
        type            calculated;
        value           uniform -5.62643;
    }
    pressure-outlet-7
    {
        type            calculated;
        value           nonuniform List<scalar> 8(3.28155 7.7505 4.46779 9.66207 7.42597 5.18027 5.80104 8.94416);
    }
    wall-8
    {
        type            calculated;
        value           uniform 0;
    }
    frontAndBackPlanes
    {
        type            empty;
        value           nonuniform List<scalar> 0();
    }
}


// ************************************************************************* //
