/*--------------------------------*- C++ -*----------------------------------*\
| =========                 |                                                 |
| \\      /  F ield         | OpenFOAM: The Open Source CFD Toolbox           |
|  \\    /   O peration     | Version:  2206                                  |
|   \\  /    A nd           | Website:  www.openfoam.com                      |
|    \\/     M anipulation  |                                                 |
\*---------------------------------------------------------------------------*/
FoamFile
{
    version     2.0;
    format      ascii;
    arch        "LSB;label=32;scalar=64";
    class       volVectorField;
    location    "89";
    object      U;
}
// * * * * * * * * * * * * * * * * * * * * * * * * * * * * * * * * * * * * * //

dimensions      [0 1 -1 0 0 0 0];

internalField   nonuniform List<vector> 
918
(
(0.98516 -0.000508488 0)
(0.0050189 2.96624 0)
(0.00806735 0.879705 0)
(0.979705 0.00214495 0)
(-0.0125255 2.06104 3.78655e-20)
(-0.00705287 2.9488 -2.4286e-18)
(0.823542 1.16991 4.50954e-19)
(0.101254 0.0760784 -1.44979e-20)
(0.999909 -0.000275347 0)
(0.0662775 0.740647 0)
(0.0196198 0.48003 0)
(0.731802 0.00693632 0)
(0.0111188 2.9304 0)
(0.00251634 2.79537 0)
(-0.0180695 3.14528 7.82296e-19)
(-0.0211337 1.91898 1.2444e-20)
(0.286898 0.0616227 1.02092e-18)
(0.189748 1.14642 3.16754e-19)
(0.962709 0.00501329 0)
(0.00649596 0.415431 0)
(-0.00449099 0.0142987 -6.67005e-19)
(1.00197 -0.00497406 0)
(1.00023 -0.00978295 0)
(0.975741 -0.00643833 0)
(0.598098 0.0310326 0)
(0.0135825 2.6431 0)
(-0.0148716 2.91001 8.9071e-19)
(0.0141933 0.922646 0)
(-0.0212648 1.18419 0)
(0.0165578 0.907051 0)
(-0.0160315 2.58503 0)
(-0.00149882 2.11531 -3.02415e-20)
(-0.0114646 1.89796 0)
(-0.0205977 2.98761 -8.71745e-23)
(-0.0166792 3.00528 1.88725e-18)
(0.00209654 3.00016 0)
(0.871483 -0.00965965 0)
(0.400167 0.928596 1.8213e-19)
(0.810465 1.1833 -5.15554e-19)
(0.961535 1.03017 5.62202e-19)
(0.677796 1.27514 -1.05081e-19)
(0.677413 1.24898 6.01783e-19)
(0.128755 0.120026 1.42062e-20)
(0.139681 0.0596131 0)
(1.16799 0.567054 0)
(0.0934314 0.0872239 6.36703e-20)
(0.0676362 0.0513688 -6.64148e-20)
(0.919932 -0.00745741 0)
(1.00027 0.000163024 0)
(0.999909 0.000340035 0)
(1.00363 -0.00775676 0)
(1.00096 -0.000917056 0)
(1.00017 3.85361e-05 0)
(0.0726527 1.82627 -7.70829e-19)
(0.0328646 0.944935 0)
(0.0988313 0.819696 0)
(0.0153527 0.892188 0)
(0.0409831 0.658971 0)
(0.0072442 2.01628 0)
(0.00273654 0.770442 0)
(0.0190797 0.503215 0)
(-0.00189807 0.759144 0)
(0.0143373 0.45761 0)
(0.842239 -0.0156618 0)
(0.84239 0.0272231 0)
(0.757796 0.00384462 0)
(0.800792 0.0294578 0)
(0.700882 0.0190585 0)
(0.0146771 3.00041 8.99653e-19)
(0.0114749 3.00812 0)
(0.00609646 3.00272 0)
(0.0135343 2.99738 1.01965e-23)
(0.00795259 2.95848 -1.33711e-18)
(0.0145023 2.98202 0)
(0.010905 2.90354 0)
(0.0241281 2.93091 2.03379e-24)
(0.00478888 2.8252 0)
(0.0301866 2.91675 0)
(-0.0046924 2.74572 0)
(0.303096 3.53574 0)
(-0.131502 3.61585 0)
(0.136489 3.2351 -7.27989e-19)
(-0.0142366 2.97522 0)
(-0.0286225 1.98737 0)
(-0.00723319 2.1701 -1.22735e-20)
(-0.0149782 1.92751 7.21335e-21)
(0.337314 0.137493 -3.54445e-19)
(0.317507 0.0370318 -3.44521e-19)
(0.291305 0.140089 -1.06172e-18)
(0.251216 0.0669438 -6.89775e-19)
(0.229952 0.986505 0)
(0.273339 1.29628 -3.68795e-19)
(0.368329 1.23216 6.15619e-19)
(0.987421 0.00858202 0)
(0.941842 0.00579834 0)
(1.0003 0.000581807 0)
(1.00286 0.0093105 0)
(1.00301 0.00847547 -2.75725e-18)
(0.991906 0.00969393 2.08217e-18)
(-0.013674 0.749461 0)
(0.0112443 0.422411 0)
(-0.0561074 1.00792 0)
(-0.033369 0.801136 0)
(0.000824503 0.421142 0)
(-0.0958299 0.0840805 2.07087e-19)
(0.0394954 0.0595533 0)
(0.993557 -0.00836827 0)
(0.954476 -0.00653438 0)
(0.743514 0.029988 0)
(0.678061 0.0285815 0)
(0.660609 0.0261892 0)
(0.973051 -0.00704666 0)
(0.585588 0.0740221 0)
(0.458026 -0.00159205 1.54718e-18)
(-0.0375213 2.86073 6.51718e-19)
(0.0408408 2.91004 0)
(0.0533887 2.88658 0)
(-0.00491096 2.70157 0)
(-0.0131311 2.98525 8.41895e-19)
(-0.0177446 2.89501 0)
(-0.0153778 2.98806 -2.61348e-18)
(-0.0132635 2.92517 8.95243e-19)
(-0.0380187 1.35388 0)
(-0.00846691 1.38552 0)
(-0.00752129 2.13482 5.90858e-22)
(-0.00659177 2.09618 0)
(-0.0234725 1.90602 0)
(0.938717 -0.00735023 0)
(0.857687 -0.00997014 0)
(0.862601 0.0055881 0)
(0.949682 -0.00778279 0)
(0.884149 -0.00820157 0)
(0.511126 1.12115 -2.29819e-19)
(0.560388 1.17218 0)
(0.365045 0.873502 3.38281e-20)
(0.308172 0.732404 0)
(0.924068 1.06594 -1.55261e-19)
(1.04372 0.875668 3.17453e-19)
(0.361178 1.35897 0)
(0.529628 1.33062 0)
(0.55078 1.26918 0)
(0.121613 0.184452 -3.04039e-19)
(0.160938 0.115478 0)
(0.173168 0.100136 1.89817e-19)
(1.01433 0.929849 0)
(1.08875 0.783078 0)
(1.11416 0.724814 -2.53644e-19)
(1.14733 0.62658 0)
(1.1972 0.409321 5.79299e-20)
(0.957816 -0.0086793 0)
(0.962548 -0.010019 0)
(0.901813 -0.007989 0)
(0.984213 -0.00913917 0)
(0.974729 -0.00932084 0)
(0.937156 -0.00637518 0)
(1.00019 0.00234127 0)
(1.0009 0.00141818 0)
(0.999909 0.000856162 0)
(0.0355193 2.07164 4.27203e-19)
(0.118396 1.76938 0)
(0.0181738 2.18503 6.56367e-19)
(0.0458854 1.88051 -5.46634e-19)
(0.107118 1.15022 -2.5938e-19)
(0.0498763 1.02701 0)
(0.144086 0.985014 0)
(0.00889983 0.845869 0)
(0.0212238 0.59299 0)
(-0.00077682 2.24138 -7.77963e-22)
(0.0162264 2.01995 0)
(-0.00167262 2.24429 -2.56022e-20)
(0.00866227 2.02628 3.7821e-20)
(0.00544225 0.81618 0)
(0.00433042 0.790645 0)
(0.0164916 0.541907 0)
(-0.00641011 0.750516 0)
(0.00669911 0.439933 0)
(0.938931 0.00988598 0)
(0.851091 -0.0146023 0)
(0.927961 0.000508873 0)
(0.842945 -0.012871 0)
(0.809383 0.00113541 0)
(0.899293 0.0207903 0)
(0.875299 0.0244075 0)
(0.783206 0.00120602 0)
(0.00560056 3.0648 -8.36265e-21)
(0.0167555 3.05773 0)
(0.0146679 2.96899 0)
(0.00866139 2.87616 0)
(0.917538 3.94569 0)
(1.22998 3.27975 9.21705e-19)
(0.0683725 3.06767 0)
(-0.0296672 2.90132 0)
(-0.0120002 1.40877 0)
(-0.0342237 1.70227 0)
(-0.0208466 1.54037 0)
(-0.0316239 2.54464 -9.40926e-21)
(-0.0164997 2.23959 0)
(-0.0220608 2.38531 0)
(-0.000822649 1.95455 8.43834e-22)
(-0.0036917 2.24105 -1.15082e-20)
(-0.00558427 2.20528 -7.51979e-21)
(-0.00874969 1.93927 0)
(0.387329 0.121077 5.42012e-19)
(0.367053 0.0230174 -5.31868e-19)
(0.258149 1.58473 0)
(0.278401 0.75973 -3.16269e-19)
(0.176748 1.67211 -1.04775e-18)
(0.225519 1.22176 1.05001e-18)
(0.901907 0.00618847 0)
(0.967322 0.0112219 0)
(0.974508 0.0108406 0)
(0.923249 0.00632019 0)
(-0.00957703 0.745385 0)
(-0.0108979 0.743141 0)
(0.00865297 0.423856 0)
(0.080358 0.0653245 5.87399e-19)
(0.0767934 0.0374645 -6.88932e-19)
(0.0411824 0.0430189 0)
(1.10236 0.0872715 2.7167e-20)
(1.08432 0.0400782 0)
(1.0154 0.0404975 0)
(0.908812 -0.00495574 0)
(0.440022 0.103584 0)
(0.499349 0.0871442 -2.47314e-18)
(0.41069 0.016839 9.25287e-19)
(0.00848509 2.98049 7.01389e-19)
(-0.0329325 2.86485 4.62455e-20)
(0.00359089 3.05027 -1.77219e-20)
(0.0202593 3.04332 6.30662e-19)
(-0.0150061 2.9966 2.94167e-20)
(-0.012944 2.9495 -1.18376e-22)
(-0.0172507 3.0119 -5.45085e-19)
(0.0149044 3.02365 3.94597e-19)
(0.00741388 3.03685 -6.24465e-19)
(0.934264 -0.00114026 0)
(0.939652 -0.00314463 0)
(0.846268 -0.00945681 0)
(0.956366 0.0121057 0)
(0.942362 0.0135576 0)
(0.881303 0.00562117 0)
(0.916311 0.0173994 0)
(0.925406 0.0154289 0)
(0.837135 0.00285096 0)
(0.713414 1.39782 3.58611e-20)
(0.746787 1.50638 0)
(0.179025 0.310633 7.07253e-20)
(0.230054 0.668125 5.68359e-19)
(0.261595 0.717137 -3.3218e-19)
(0.26087 0.514681 6.61562e-19)
(0.347487 0.81311 1.59965e-18)
(0.141443 0.230975 3.77419e-19)
(0.249727 0.141843 7.29728e-19)
(0.211656 0.131961 1.88962e-19)
(0.213573 0.0799899 3.57769e-19)
(1.18609 0.467516 6.67911e-20)
(1.20051 0.258934 6.16426e-20)
(0.0103892 2.23379 2.52205e-19)
(0.0402894 1.94887 0)
(0.971969 0.0296847 0)
(0.944161 0.0140847 0)
(0.870247 -0.0177132 0)
(0.011251 3.07419 0)
(0.019551 2.94401 1.15077e-18)
(0.0164045 2.95626 0)
(0.0064463 2.85065 -1.14154e-18)
(0.00632297 3.09073 2.7885e-19)
(0.00723643 3.08273 0)
(0.779437 1.80733 -1.56753e-19)
(1.23777 2.48169 3.96537e-19)
(0.761408 1.94653 -1.21899e-18)
(0.0194781 2.97986 -6.02945e-19)
(0.0348852 2.99828 0)
(-0.0346166 2.87593 0)
(-0.00383288 2.22419 -1.32126e-20)
(-0.00313439 2.24528 1.92617e-20)
(0.00193062 1.98898 -7.31182e-21)
(0.278302 1.39459 1.02596e-18)
(0.240421 0.555966 -7.03343e-19)
(0.0636769 1.99664 7.61194e-19)
(0.134899 1.88289 -9.09221e-19)
(0.179977 1.51271 9.53695e-20)
(0.00183891 3.11861 -1.73427e-18)
(0.0160592 3.118 1.86053e-18)
(-0.00920992 2.98107 7.71534e-19)
(-0.00374191 2.9773 -7.27464e-19)
(-0.0209694 2.88097 -7.85788e-19)
(0.00853387 3.09974 -2.07158e-18)
(0.00221323 3.10621 2.02359e-18)
(0.283478 0.695329 0)
(0.249118 0.683575 -1.1845e-18)
(0.0955753 0.224051 5.25817e-19)
(0.35865 0.940845 1.11709e-18)
(0.196518 0.277502 -1.72243e-18)
(1.19052 0.176543 6.27548e-20)
(1.2008 0.31397 0)
(1.1789 0.123782 -5.59042e-21)
(0.00169206 2.25274 -1.43735e-21)
(0.00508166 2.24392 0)
(0.0247096 1.98491 0)
(0.339689 1.30362 -3.68186e-19)
(0.375458 1.15272 -8.01593e-19)
(0.211273 0.380215 1.43014e-18)
(1.00588 -0.0108219 0)
(1.00767 -0.0076298 5.08626e-19)
(-0.0322228 1.33515 0)
(-0.0446012 1.33728 0)
(1.00221 0.00351745 1.81304e-21)
(1.00366 0.0094742 1.03859e-18)
(-0.020118 2.5297 1.1926e-20)
(-0.0249921 2.57228 0)
(0.0335876 3.17618 3.95975e-19)
(0.387916 3.48011 0)
(1.17945 0.668905 -5.61258e-20)
(1.01282 0.0131529 -2.13114e-21)
(1.02137 -0.0102596 0)
(1.0017 0.000137857 8.10425e-23)
(0.113042 1.37319 0)
(0.143214 2.56354 0)
(0.0358689 1.31538 0)
(0.000656131 2.61553 2.55311e-20)
(-0.0205646 2.57296 -5.90401e-22)
(0.999601 0.0311504 2.51357e-21)
(1.06335 0.00494703 0)
(1.09803 0.0256322 0)
(-0.0324206 1.74589 0)
(-0.01867 2.57398 0)
(-0.00631333 1.32538 0)
(0.311825 1.48639 -1.66866e-19)
(1.01131 -0.00960617 0)
(1.0094 -0.0149134 0)
(1.00237 0.00076389 6.50066e-19)
(1.00547 -0.00479276 -7.64005e-19)
(1.00118 -0.000964202 0)
(-0.0197953 1.47618 0)
(-0.00790918 1.38985 0)
(-0.0118115 1.43415 0)
(-0.0112026 1.31187 0)
(-0.0256486 1.29956 0)
(-0.0142615 1.28441 0)
(1.03511 -0.00599762 0)
(1.01977 0.0161278 -9.27543e-22)
(0.825504 1.27875 2.62057e-19)
(1.00223 0.000330359 -6.47454e-19)
(1.00406 0.0052674 7.58122e-19)
(1.00118 0.00208036 0)
(1.01269 0.0103972 6.44545e-19)
(1.00797 0.00832186 -7.80951e-19)
(1.00855 0.0146828 0)
(-0.0241284 2.60126 0)
(-0.026563 2.58022 -2.2472e-20)
(-0.0236128 2.5946 1.58824e-20)
(1.24001 0.270445 5.81512e-19)
(1.16405 0.0879776 0)
(0.0390386 3.0783 -8.90451e-19)
(0.0649348 2.85711 -6.47214e-20)
(0.136568 3.19181 1.35869e-18)
(0.13207 3.2191 -1.89338e-19)
(0.131466 3.22891 0)
(0.0196025 3.13718 2.29595e-19)
(0.0735379 3.15989 8.78019e-19)
(0.0665697 3.18461 -4.32908e-19)
(0.0218076 3.13009 0)
(0.549251 0.280504 0)
(0.482302 0.299572 0)
(1.15209 0.705375 1.2629e-19)
(1.14482 0.827079 -1.08454e-19)
(1.20736 0.591789 0)
(1.23443 0.525094 0)
(1.01599 0.0134097 -1.20135e-18)
(1.01492 0.014288 1.50831e-18)
(1.02543 -0.00978059 0)
(1.02349 -0.0118303 0)
(1.00643 0.00266853 0)
(1.01042 0.00377657 0)
(1.00458 0.00188107 0)
(1.00977 0.00627922 0)
(1.0078 0.00597191 0)
(1.0045 0.00474092 0)
(0.101705 1.37186 0)
(0.0987582 1.33345 0)
(0.132326 1.40851 0)
(0.150173 1.41263 0)
(0.14534 2.58871 0)
(0.184737 2.65946 -4.22627e-19)
(0.101691 2.64364 0)
(0.0853955 2.64675 1.97753e-19)
(0.0392294 2.67002 -1.46127e-19)
(0.0230936 1.33319 0)
(0.0333928 1.24831 0)
(0.0252497 1.34369 0)
(0.0468652 1.2695 0)
(0.00488752 1.98073 6.39596e-21)
(-0.0194985 2.60068 -2.40796e-20)
(-0.00729564 2.65678 9.44897e-21)
(-0.0171766 2.67675 0)
(-0.0225756 2.60639 6.58501e-21)
(-0.0226211 2.60144 2.02982e-20)
(0.0135999 1.97868 -1.20901e-21)
(-0.0070454 2.38681 3.23032e-20)
(-0.0123923 2.41015 -1.07169e-20)
(1.01186 0.0400194 1.21598e-18)
(1.00541 0.021197 -1.51391e-18)
(1.00404 0.0472515 -1.23887e-18)
(0.978744 0.0379126 1.55903e-18)
(1.06455 0.00873693 0)
(1.04964 -0.00810443 0)
(1.09515 0.0356623 0)
(1.07474 0.0133225 0)
(1.07255 0.00110106 0)
(1.14109 0.0848034 0)
(1.11265 0.0454993 0)
(1.11689 0.033152 0)
(-0.0271612 2.42435 1.83341e-21)
(-0.0167729 2.01452 0)
(-0.0194352 2.21315 0)
(-0.0206041 2.59452 -1.39037e-20)
(-0.0175861 2.60473 3.03737e-22)
(0.00149824 1.58913 -4.41196e-20)
(-0.010378 1.51657 4.49882e-20)
(-0.0189323 1.40529 0)
(-0.0231173 1.41248 0)
(-0.0307972 1.40672 0)
(-0.00250996 1.32723 0)
(0.0151525 1.24302 0)
(0.38822 1.50386 2.71108e-19)
(0.431668 1.5044 1.44545e-19)
(0.596705 2.43916 -2.40875e-19)
(0.396993 2.53682 7.08302e-19)
(0.348287 2.04625 7.25496e-20)
(1.0211 -0.00808485 0)
(1.01552 -0.00972794 0)
(1.01493 -0.0154953 0)
(1.00741 -0.00104365 0)
(1.00493 -0.000897863 0)
(1.00779 -0.00466704 0)
(1.00928 -0.00357711 0)
(1.01424 -0.0043363 0)
(1.02048 0.0166532 1.17707e-18)
(1.01751 0.0158136 -1.50814e-18)
(1.02079 0.0189547 -1.18639e-18)
(1.01819 0.0175253 1.48688e-18)
(0.78876 1.32902 0)
(0.723788 1.38052 2.46705e-19)
(0.901961 1.22911 9.90711e-20)
(0.947714 1.17492 -1.31851e-19)
(1.15152 2.59335 2.88396e-19)
(0.763687 0.123653 6.02466e-19)
(1.16464 0.110937 0)
(1.21449 0.196975 -4.68176e-19)
(1.20212 0.157125 -1.99699e-20)
(1.00568 0.159235 0)
(0.125124 2.95966 5.1805e-19)
(0.101025 2.86511 -1.12655e-18)
(0.00683458 2.37818 7.49976e-19)
(0.110025 -0.183833 -3.02208e-19)
(0.332862 3.41066 -2.18325e-19)
(0.188598 3.3067 0)
(0.232779 3.34598 2.8434e-19)
(0.235731 3.03095 -1.74045e-18)
(0.328413 3.18804 0)
(0.00569718 3.12113 4.49091e-20)
(0.0152849 3.12983 -5.30811e-19)
(0.0138344 3.12592 7.81238e-19)
(0.0342899 3.14001 0)
(0.0328295 3.15 0)
(1.20551 2.59017 0)
(0.550898 0.796024 -5.27255e-19)
(1.07136 0.999763 -1.09752e-20)
(1.00727 1.08379 0)
(0.860947 0.978373 -1.0953e-19)
(1.09862 0.900529 2.78579e-20)
(0.261955 0.303685 -8.04624e-19)
(0.637005 0.326095 -1.56017e-20)
(0.521008 0.219466 4.06483e-19)
(0.501616 0.336759 2.89511e-20)
(0.383001 0.260758 -1.15888e-18)
(0.588191 0.326541 0)
(0.706211 0.433631 6.62233e-19)
(0.703314 0.433923 0)
(0.54519 0.341663 0)
(0.453541 0.237687 0)
(0.833665 0.632881 4.06877e-19)
(1.24147 0.292938 -4.88943e-19)
(1.2423 0.432945 0)
(1.25032 0.372918 0)
(0.669481 0.195606 6.23169e-19)
(0.877697 0.563923 -3.71046e-19)
(0.777157 0.542266 6.62668e-19)
(0.963382 0.453596 -7.34214e-19)
(1.01921 0.0150678 8.08896e-19)
(1.01751 0.0144132 -8.12511e-19)
(1.01576 0.0154561 0)
(1.03659 -0.00553621 0)
(1.02998 -0.00832696 -7.60943e-19)
(1.02803 -0.0119254 7.53383e-19)
(1.02491 0.0107152 0)
(1.02339 0.0144824 0)
(1.01142 0.00420655 0)
(1.01417 0.00922589 0)
(1.01518 0.00423883 0)
(1.01429 0.00294651 0)
(0.0726356 1.35522 0)
(0.0801731 1.29976 0)
(0.149206 1.39034 6.23092e-21)
(0.282568 1.4848 8.87182e-20)
(0.177549 1.45544 1.86486e-19)
(0.209848 1.46066 -3.04089e-19)
(0.177948 1.41613 0)
(0.136521 1.59969 -7.28583e-20)
(0.12043 1.57968 0)
(0.344024 1.99474 -1.05501e-19)
(0.340629 2.33229 6.14723e-19)
(0.196725 1.46734 6.35094e-20)
(0.269948 1.40203 2.2451e-20)
(0.203254 1.39499 -1.81286e-20)
(0.279995 1.34474 -1.07115e-19)
(0.243178 1.57812 0)
(0.26988 1.61454 1.15267e-19)
(0.0312723 2.25333 -2.90482e-20)
(0.0441799 2.659 0)
(0.0669061 2.38947 1.36773e-19)
(0.0636758 2.41004 0)
(0.0699471 2.66035 -2.19153e-19)
(0.0496374 2.6893 0)
(0.0307608 1.45205 3.71564e-20)
(0.0369492 1.49838 0)
(0.0351028 1.41652 0)
(0.0308688 1.4231 -4.19309e-20)
(0.0014502 2.64293 -1.65125e-20)
(0.0302808 2.68839 1.63815e-19)
(0.0110973 2.71376 1.14633e-21)
(0.00688365 1.84045 -9.80229e-21)
(-0.000323851 1.69466 -5.1957e-21)
(0.0196968 1.30946 0)
(0.0306144 1.2231 0)
(0.0461973 1.59714 -2.86613e-20)
(0.0360079 1.47803 -3.46905e-20)
(0.0397225 1.54062 4.33564e-20)
(0.0412939 1.62044 0)
(-0.0302423 2.26588 1.08776e-19)
(-0.0312342 2.54138 -4.53166e-20)
(-0.0169159 2.43982 5.48378e-21)
(-0.000861207 1.85576 1.18786e-20)
(-0.0256243 2.49204 4.99214e-21)
(-0.0197998 2.43656 -8.76682e-21)
(1.01894 0.0223591 -8.06765e-19)
(1.01553 0.028731 8.099e-19)
(1.01284 0.0183804 0)
(1.00904 0.0715391 1.13529e-18)
(0.99163 0.0620339 -1.26712e-18)
(0.950896 0.0561533 1.4168e-18)
(1.01258 0.112055 -1.51078e-19)
(1.04304 -0.00550192 0)
(1.05151 -0.00105716 7.25607e-19)
(1.03935 -0.00966846 -7.27102e-19)
(1.07233 0.0433733 -4.31608e-20)
(1.06523 0.0244723 3.72187e-19)
(1.06312 0.0577202 0)
(1.05417 0.0511108 -1.33908e-19)
(1.03215 0.0424386 0)
(1.02662 0.0385849 0)
(1.02792 0.0138887 0)
(1.02393 0.0166738 0)
(1.04024 0.0333356 2.75766e-19)
(1.03893 0.0272038 -6.09631e-19)
(1.05146 0.0349737 -2.92228e-19)
(1.04836 0.035074 -3.21888e-19)
(1.07176 0.0661072 6.28212e-19)
(1.0974 0.0538933 0)
(1.10696 0.0983594 0)
(-0.0259909 2.27049 6.07706e-20)
(-0.0263445 2.02005 1.71284e-21)
(-0.0223244 2.02748 0)
(-0.0273497 2.43865 -6.04813e-20)
(-0.0232281 2.39519 -3.46624e-21)
(-0.03385 2.4651 6.55239e-21)
(-0.0202752 2.61395 -1.78246e-20)
(-0.0233156 2.55548 5.42946e-22)
(-0.0218323 2.50755 -5.31628e-21)
(-0.0156567 2.60773 1.37075e-20)
(-0.0205308 2.6098 -1.51517e-20)
(-0.0070418 1.51763 -1.00495e-21)
(0.00199515 1.63582 -4.31458e-20)
(0.37335 1.45269 -1.13943e-19)
(0.373403 1.38521 4.13281e-20)
(0.664534 1.43025 -2.38615e-19)
(0.530598 1.49714 -1.41861e-19)
(0.588565 1.46324 0)
(0.592428 2.41631 2.07413e-19)
(0.661044 2.41244 3.3804e-19)
(0.410547 2.50557 8.82338e-20)
(0.401844 2.52944 -6.09621e-19)
(0.50938 2.46982 6.15964e-19)
(0.55253 2.45297 0)
(0.486918 2.51107 -5.59606e-19)
(0.247917 2.5831 1.14202e-18)
(0.354196 2.555 -7.68008e-20)
(0.28332 2.64482 -1.58552e-18)
(0.947797 2.36892 7.31835e-19)
(0.837546 2.37468 0)
(1.01109 0.00056171 2.63725e-20)
(1.01538 -0.00533402 -2.13907e-20)
(1.0177 -0.00343044 -3.90684e-19)
(1.01507 -0.00079331 3.92822e-19)
(1.01249 0.00131069 0)
(0.652009 1.2939 0)
(0.676272 1.18769 0)
(0.790757 1.10736 0)
(0.669445 1.15095 0)
(1.18182 2.60677 6.02903e-20)
(1.0695 2.35389 0)
(0.831395 2.15558 3.93304e-21)
(0.822031 2.42251 0)
(0.920552 2.51697 -4.27394e-19)
(0.955623 2.47315 2.84251e-19)
(0.795594 0.184179 0)
(0.736085 0.15695 1.63386e-19)
(0.905296 0.153353 9.52408e-19)
(0.821307 0.156059 -3.56082e-19)
(0.774471 0.0903803 -1.10137e-18)
(1.08313 0.244263 -8.95642e-19)
(0.999587 0.308679 -1.80463e-20)
(0.926575 0.312837 8.62015e-19)
(1.00666 0.237869 7.2467e-19)
(0.947156 0.20194 -1.25983e-18)
(0.908112 0.206286 1.57605e-19)
(0.946645 0.27373 -3.3428e-19)
(0.924395 0.232554 0)
(0.995557 0.198487 6.2121e-19)
(1.04719 0.196946 0)
(1.04505 0.225662 0)
(1.10821 0.122915 2.91151e-19)
(1.07232 0.183173 -1.52142e-20)
(1.07654 0.244211 -1.58394e-19)
(1.10197 0.209855 0)
(1.02094 0.0468877 6.22048e-19)
(1.04025 0.060068 7.76172e-19)
(1.03369 0.0453464 -6.18182e-19)
(1.04245 0.068061 -5.20772e-19)
(1.01707 0.076398 -7.99886e-19)
(0.98366 0.161563 0)
(0.988825 0.106648 0)
(0.965945 0.0771356 -5.04066e-19)
(0.903798 0.0981415 2.00643e-19)
(1.04036 0.109073 7.19364e-19)
(1.06958 0.126289 -8.39778e-19)
(1.07687 0.158968 7.4989e-19)
(1.03201 0.153744 0)
(1.07511 0.113581 0)
(1.05406 0.0942917 -3.44216e-19)
(1.04459 0.100028 -5.86938e-19)
(0.578233 1.04839 1.43836e-19)
(0.600804 1.37014 -4.57454e-20)
(1.15194 2.72307 -2.33728e-19)
(1.21704 3.06563 3.59409e-21)
(1.24316 2.7055 -1.32145e-19)
(1.27084 2.68833 -2.69112e-20)
(1.19743 2.32785 -1.1392e-20)
(1.20487 2.96926 -9.94676e-20)
(1.22544 2.93485 2.43574e-19)
(1.20676 3.21784 -1.39764e-19)
(1.36564 2.9478 1.93041e-19)
(1.35331 2.86551 0)
(0.573357 0.806334 -5.09535e-20)
(0.0952152 1.21232 5.63431e-19)
(0.566952 0.313914 5.3063e-19)
(0.401069 0.0581111 5.67888e-19)
(0.438748 0.308022 6.57655e-19)
(0.54126 0.426157 -1.07064e-18)
(0.545396 0.419823 8.76237e-19)
(0.440723 0.280327 -3.30698e-19)
(0.282761 0.20683 7.41833e-19)
(0.69928 0.271684 -3.60419e-19)
(0.653569 0.293827 0)
(0.583048 0.208487 6.19343e-21)
(0.742879 0.516931 3.58655e-19)
(0.726211 0.488627 -1.30355e-18)
(0.621541 0.450298 8.77664e-21)
(0.610769 0.439941 0)
(0.699916 0.720047 3.96382e-19)
(0.86206 0.784558 3.92501e-19)
(0.786875 0.867843 -4.59419e-19)
(0.907714 0.821878 -1.53076e-19)
(0.938972 0.867136 -3.6835e-20)
(0.945975 0.866854 3.77212e-20)
(0.872843 0.667374 -6.74247e-19)
(0.952585 0.719513 1.42122e-19)
(1.01304 0.734184 0)
(1.00362 0.710393 -1.91959e-19)
(1.02964 0.349657 2.12005e-19)
(1.15142 0.309778 2.88024e-19)
(1.0712 0.282054 3.66034e-19)
(1.02045 0.382682 -4.31318e-19)
(1.0698 0.445008 0)
(1.12632 0.424889 0)
(0.920698 0.386293 1.2927e-21)
(0.835238 0.320296 0)
(0.885992 0.319686 4.07074e-19)
(0.909844 0.321011 -8.41559e-21)
(0.958591 0.457426 2.04487e-18)
(0.920564 0.513521 5.24618e-19)
(0.924234 0.480026 -5.60243e-19)
(0.837457 0.46865 6.02031e-19)
(0.821181 0.463854 3.61099e-19)
(0.789585 0.446808 -3.54407e-19)
(1.02744 -0.000133543 6.50896e-19)
(1.02006 0.000157494 0)
(1.01858 0.00108179 4.2442e-19)
(1.02181 -0.0014426 -9.61447e-19)
(1.0224 0.00463007 4.67071e-19)
(1.02033 0.011685 -9.78096e-19)
(1.02122 0.0110821 0)
(1.02043 0.0113283 -2.0386e-19)
(1.01594 0.00794133 5.11416e-19)
(1.01657 0.010757 -2.55245e-19)
(1.01729 0.010115 1.87908e-19)
(0.0364717 1.33156 0)
(0.0434966 1.38776 0)
(0.0530442 1.33173 0)
(0.060504 1.27695 0)
(0.0761604 1.40494 -4.58195e-20)
(0.0865623 1.37057 2.07502e-20)
(0.11468 1.54961 -1.55979e-20)
(0.108512 1.3935 -3.81365e-21)
(0.0414196 1.4831 1.9675e-20)
(0.0450771 1.47681 -1.51378e-20)
(0.0690843 1.39247 -1.11648e-20)
(0.0616937 1.39318 4.4966e-20)
(0.0561346 1.37028 6.72177e-21)
(0.0465813 1.39415 3.85463e-21)
(0.107609 2.35666 -1.51121e-19)
(0.0963206 2.40575 0)
(0.169383 2.03071 1.09517e-19)
(0.115005 1.70223 4.06863e-20)
(0.234901 2.02874 -9.05857e-20)
(0.198789 2.41859 0)
(0.261603 2.36846 -6.09433e-19)
(0.301843 2.36614 4.30368e-19)
(0.228576 1.9882 -2.52454e-19)
(0.155068 2.1466 1.70956e-19)
(0.141355 2.25249 0)
(0.0192708 1.87644 7.66025e-21)
(0.0016014 2.38148 -2.9387e-20)
(0.00691906 2.13959 0)
(0.0120902 2.44581 -1.36779e-20)
(0.0298536 2.28833 7.95138e-21)
(0.0192774 1.43127 -8.19858e-21)
(0.017673 1.41341 1.39049e-19)
(0.0159127 1.42219 -4.59057e-20)
(0.0242243 1.42805 -3.8705e-20)
(0.0288174 1.45598 0)
(0.0114304 1.40637 0)
(0.00507159 1.30996 -6.35601e-20)
(0.00741973 1.40062 1.84604e-20)
(0.0134912 1.39791 0)
(0.0135963 1.29974 -4.67746e-20)
(0.0267174 1.21416 9.5659e-20)
(1.04085 0.0121515 0)
(1.04711 0.00843645 -6.80984e-20)
(1.03893 0.0227258 -4.91187e-19)
(1.0486 0.0213969 0)
(1.05246 0.0211837 0)
(1.03656 0.012432 -6.81343e-21)
(1.03124 0.0122808 7.89457e-19)
(1.03179 0.017319 9.57455e-19)
(1.02559 0.0212745 0)
(1.02253 0.0218778 0)
(1.03541 0.02633 4.90041e-19)
(1.02589 0.0280961 0)
(1.02407 0.0276919 0)
(-0.0175007 2.02318 0)
(-0.000819068 1.66466 -4.10507e-21)
(-0.00491565 1.76769 -3.24979e-20)
(-0.00165716 1.40774 0)
(-0.00519673 1.57096 -2.46604e-20)
(-0.0111439 1.48439 1.51713e-20)
(-0.00942735 1.425 0)
(0.387499 1.63297 0)
(0.376295 1.31088 -8.0685e-20)
(0.300057 1.33955 0)
(0.427521 1.30939 1.69051e-20)
(0.479184 1.47479 0)
(0.45926 1.41877 2.10863e-20)
(1.03571 2.66892 -1.54738e-20)
(0.967963 2.39723 -9.19604e-19)
(0.921208 2.18647 1.02894e-18)
(0.851668 2.36644 2.43222e-19)
(0.846954 2.47777 0)
(0.916629 2.47394 0)
(0.93115 2.36236 0)
(0.910106 2.35217 -9.49862e-19)
(0.685295 2.44074 -3.98603e-19)
(0.798776 2.43014 -9.86452e-20)
(0.808858 2.40431 7.49071e-20)
(0.694734 2.38527 0)
(0.800078 2.38046 0)
(0.758064 2.39419 -3.69893e-19)
(0.766344 2.4675 0)
(0.637919 1.09507 0)
(0.479321 0.891991 -5.26179e-19)
(0.575134 0.942012 -3.32162e-20)
(0.518019 1.02671 0)
(0.518471 0.96686 7.8666e-19)
(0.807172 0.88982 -1.29933e-19)
(0.814942 1.02479 0)
(0.790575 0.991859 1.85324e-19)
(0.675425 1.0357 0)
(0.676122 0.93829 0)
(1.1615 2.74622 -2.33547e-19)
(1.13887 2.80977 -1.0118e-19)
(0.926508 2.32219 1.07673e-19)
(0.894607 2.30202 -8.5146e-20)
(1.12735 2.71906 0)
(1.08149 2.68837 1.02415e-19)
(1.08651 2.47181 -3.15347e-19)
(0.981007 2.22543 -2.99771e-20)
(0.489846 1.32214 0)
(0.506443 1.05558 -1.26742e-19)
(0.580382 1.16864 0)
(0.848682 0.251604 0)
(0.755801 0.200809 0)
(0.661849 0.154555 0)
(0.839625 0.252589 -6.33313e-19)
(0.725753 0.245747 3.75272e-19)
(0.922121 0.0913878 -4.13442e-19)
(0.924412 0.133423 0)
(0.912662 0.142377 1.7866e-19)
(0.848728 0.1182 7.14293e-19)
(0.812491 0.0791438 -4.4757e-19)
(1.15131 3.34232 -7.10615e-19)
(1.20086 3.26213 0)
(1.14884 3.3717 -1.48086e-18)
(0.63774 3.53386 1.25472e-18)
(0.857386 3.10401 6.65072e-20)
(0.525304 0.78142 6.10397e-19)
(0.420632 0.778972 0)
(0.293954 0.335764 -1.47539e-19)
(0.48525 0.649988 8.55446e-19)
(0.576952 0.324739 -1.89133e-19)
(0.517426 0.462322 2.27119e-19)
(0.67469 0.518642 4.82724e-19)
(0.722497 0.56063 0)
(0.67239 0.571047 0)
(0.640234 0.528384 0)
(1.01277 0.620809 8.74801e-20)
(0.926175 0.562712 -5.10963e-19)
(0.952163 0.593792 3.84519e-19)
(0.980744 0.533742 -3.96421e-19)
(1.09007 0.499997 0)
(1.099 0.591784 -9.61608e-20)
(0.856138 0.419464 -8.31975e-19)
(0.854004 0.407301 -1.03131e-18)
(0.783568 0.401503 6.31372e-19)
(0.792842 0.389682 -6.42097e-19)
(0.841891 0.345321 -5.21248e-19)
(0.787187 0.341173 6.37085e-19)
(1.02679 0.00620376 -4.97506e-19)
(1.02648 0.00643877 1.0129e-18)
(1.02957 0.000340936 6.30776e-19)
(1.03376 0.00123653 -7.59753e-19)
(1.03397 0.00938495 0)
(1.03023 0.0100685 -1.236e-18)
(0.0643685 1.63826 1.89763e-20)
(0.0529409 1.59115 0)
(0.0915859 1.68735 1.28432e-19)
(0.0988797 1.66855 -1.13838e-19)
(0.0927403 1.55069 2.78997e-20)
(0.0920085 1.55247 0)
(0.014034 1.69694 0)
(-0.00184556 1.51472 1.10907e-20)
(-7.00783e-05 1.46145 -9.96969e-21)
(-0.00711884 1.56759 5.53875e-21)
(0.00306558 1.88743 1.63041e-20)
(-0.00888936 1.94083 -4.0383e-21)
(0.49647 1.35189 -2.83079e-19)
(0.490685 1.35096 3.11075e-19)
(0.455432 1.30502 -3.6761e-20)
(0.436888 1.28033 8.0458e-21)
(0.644118 1.31246 0)
(0.558263 1.40323 1.01608e-19)
(0.574847 1.41016 -9.89225e-20)
(0.469804 1.29846 3.59197e-20)
(0.525489 1.2442 0)
(0.576702 1.20612 0)
(0.652373 2.40056 5.85533e-19)
(0.668219 2.44267 1.26341e-18)
(0.712504 2.45348 -8.70662e-19)
(0.608531 2.42738 -2.02246e-19)
(0.559178 2.51684 2.85133e-19)
(0.508586 2.4921 -7.59974e-19)
(0.977192 2.36899 -5.76058e-19)
(1.01046 2.38088 0)
(0.92447 2.16449 -6.5968e-19)
(1.05279 2.66732 0)
(1.05516 2.65388 0)
(0.591252 2.24919 -1.40133e-19)
(1.03273 3.14895 1.17488e-19)
(0.904156 3.0198 -1.90781e-20)
(0.254729 0.818312 0)
(0.276944 0.656358 -3.18977e-19)
(0.451766 0.618732 -3.22729e-19)
(0.371647 1.9925 0)
(0.458039 2.77584 -4.63007e-20)
(0.410112 2.53823 0)
(0.726515 0.67045 -8.36409e-19)
(0.809596 0.693417 1.1138e-18)
(0.829179 0.633888 -1.10011e-18)
(0.702676 0.636215 -1.06652e-19)
(0.756234 0.596478 -4.36039e-19)
(0.997477 2.7463 -8.93629e-20)
(1.04018 2.81034 -1.74033e-19)
(0.626329 2.10775 7.25928e-19)
(0.577825 1.67738 -5.16292e-19)
(0.690383 1.88097 -4.17671e-19)
(0.984304 2.43091 -1.13423e-19)
(0.992075 2.42423 3.04624e-19)
(0.642776 1.81184 2.90011e-20)
(0.436049 1.30012 1.4787e-19)
)
;

boundaryField
{
    wall-4
    {
        type            noSlip;
    }
    velocity-inlet-5
    {
        type            fixedValue;
        value           uniform (1 0 0);
    }
    velocity-inlet-6
    {
        type            fixedValue;
        value           uniform (0 3 0);
    }
    pressure-outlet-7
    {
        type            zeroGradient;
    }
    wall-8
    {
        type            noSlip;
    }
    frontAndBackPlanes
    {
        type            empty;
    }
}


// ************************************************************************* //
