/*--------------------------------*- C++ -*----------------------------------*\
| =========                 |                                                 |
| \\      /  F ield         | OpenFOAM: The Open Source CFD Toolbox           |
|  \\    /   O peration     | Version:  2206                                  |
|   \\  /    A nd           | Website:  www.openfoam.com                      |
|    \\/     M anipulation  |                                                 |
\*---------------------------------------------------------------------------*/
FoamFile
{
    version     2.0;
    format      ascii;
    arch        "LSB;label=32;scalar=64";
    class       volScalarField;
    location    "76";
    object      p;
}
// * * * * * * * * * * * * * * * * * * * * * * * * * * * * * * * * * * * * * //

dimensions      [0 2 -2 0 0 0 0];

internalField   nonuniform List<scalar> 
918
(
0.55722
1.17858
0.00128864
0.556682
-0.0125659
1.14555
-0.512717
0.652365
0.537427
-0.10708
-0.0567262
0.539714
1.00638
0.770708
-1.12408
-0.0118936
0.651633
-0.38233
0.536551
-0.0640057
0.680601
0.54396
0.546984
0.537561
0.596941
0.743578
0.887371
0.0270996
0.010895
0.00630582
-0.0120309
-0.0387608
-0.0329529
1.02921
1.08027
1.10297
0.50514
0.33383
-0.3784
-0.45193
-0.438141
-0.541789
0.653429
0.654261
-0.216223
0.654149
0.653705
0.524432
0.536797
0.53771
0.538721
0.537711
0.539088
0.402698
-0.108077
-0.139501
-0.0878298
-0.080983
0.0503247
-0.0566563
-0.0583736
-0.0556629
-0.0552653
0.454213
0.534138
0.530593
0.543982
0.553199
1.11813
1.09008
1.1162
1.02985
1.04633
0.984383
0.956953
0.792342
0.81432
0.754567
0.740815
-1.55415
-2.50247
-0.535881
-0.286211
-0.0105958
-0.0100446
-0.00465472
0.648962
0.650061
0.651297
0.653104
1.0787
-0.379631
-0.480989
0.536695
0.535506
0.543816
0.544519
0.540539
0.539629
-0.0552845
-0.0525437
-0.0536423
-0.0592622
-0.0572342
0.660567
0.66399
0.538088
0.535089
0.560733
0.581248
0.571237
0.276989
0.608019
0.62409
0.577634
0.736865
0.730699
0.739689
0.861075
0.824127
0.924397
0.947754
0.0180159
-0.000162831
-0.0162754
-0.0199219
-0.0188536
0.500966
0.493499
0.521261
0.508582
0.511094
0.25085
0.117846
0.418602
0.443329
-0.298059
-0.365765
-0.430522
-0.460965
-0.568503
0.613483
0.654506
0.652699
-0.225531
-0.153864
-0.28797
-0.0807231
-0.143955
0.514679
0.521707
0.516697
0.532272
0.526733
0.528699
0.541072
0.538141
0.539701
0.464795
0.588282
0.328962
0.293396
-0.243439
-0.154892
-0.242742
-0.0709639
-0.0683678
0.0644183
0.0901314
0.0370426
0.0252213
-0.0643894
-0.0595177
-0.0618595
-0.0543867
-0.0540249
0.446929
0.435656
0.466924
0.474498
0.520512
0.522008
0.526512
0.524566
0.907883
0.930318
0.937686
0.911372
-3.48883
-6.26472
0.0372783
0.173177
-0.00662497
-0.00935438
0.0020516
-0.00604615
2.74901e-05
-0.00208308
-0.00992464
-0.0112088
-0.0059661
-0.00475423
0.643532
0.644462
1.00123
1.00869
0.97642
0.929393
0.524943
0.526998
0.532483
0.52837
-0.053009
-0.0521571
-0.052006
0.655547
0.65872
0.657362
0.238292
0.148126
0.328286
0.357585
0.637101
0.626106
0.635391
0.638571
0.673424
0.955195
0.973287
0.971592
0.979766
1.02378
1.04016
1.00552
0.480352
0.490366
0.485296
0.524145
0.522021
0.522871
0.519351
0.520312
0.518546
-0.0322615
-0.411328
0.490691
0.507122
0.492952
0.494916
0.693602
0.772199
0.652477
0.653402
0.653313
-0.0109901
-0.0695175
0.248456
0.21417
0.386217
0.422785
0.401664
0.879127
0.839113
0.88933
0.862781
0.824144
0.850662
-0.362938
-1.85887
-0.979949
0.520888
0.336554
0.423336
0.00699423
-0.00958935
-0.00508366
1.00145
1.07331
0.644093
0.819256
0.821614
0.70966
0.739319
0.797638
0.721365
0.757557
0.793431
0.773211
0.569294
0.503887
0.520318
0.841094
0.896632
0.117538
0.0551975
0.0114655
0.109242
0.166796
0.140709
1.03317
0.950099
1.02003
0.534851
0.535576
-0.00562559
-0.0184019
0.539835
0.539892
-0.0130093
-0.00218927
0.406123
-0.831861
0.0954835
0.528435
0.518285
0.535444
-0.0930441
0.354125
-0.0575733
0.0457408
-0.01107
0.529707
0.465368
0.424371
-0.000501385
-0.021085
-0.0543353
-0.213527
0.532521
0.530825
0.534912
0.535849
0.536532
-0.019523
-0.0152984
-0.0105496
-0.0507492
-0.0427272
-0.0559207
0.499303
0.518693
-0.171774
0.53506
0.537198
0.537015
0.530291
0.535914
0.53417
-0.0116834
-0.0163476
-0.0187647
0.218044
0.351128
0.64396
0.728963
0.617257
0.39381
0.159685
0.548285
0.610823
0.517462
0.669793
0.649295
0.650055
0.160954
0.0103969
0.17014
0.112032
0.526304
0.525047
0.516536
0.51349
0.530313
0.528429
0.532986
0.530016
0.532966
0.534344
-0.0498147
-0.0757471
-0.0852928
-0.151889
0.308907
0.569921
0.253629
0.282904
0.139981
-0.0513482
-0.0529376
-0.0547064
-0.0609829
-0.000677782
-0.0269251
0.0403794
0.0404838
0.012301
-0.0135036
-0.0111433
-0.0222968
-0.0162954
0.522954
0.523051
0.527499
0.536171
0.475048
0.478836
0.443588
0.464412
0.449598
0.388088
0.423647
0.398756
-0.00643837
0.00176942
-0.0032075
-0.0192744
-0.0159817
-0.0350834
-0.0321031
-0.0278649
-0.0234184
-0.0302634
-0.0487135
-0.0523638
-0.171509
-0.287423
0.987856
0.907864
0.137951
0.521661
0.528125
0.524881
0.529823
0.532952
0.533745
0.531448
0.527992
0.518951
0.520514
0.517111
0.518089
-0.102748
-0.244791
-0.0730832
-0.148419
0.146006
0.62816
0.363015
0.297948
0.293432
0.523047
0.913955
0.696108
0.661962
0.654994
-0.344963
0.0427919
-0.2818
0.332365
0.160341
0.645589
0.693557
0.713404
0.66249
0.616206
-0.0993759
0.555847
-0.0765717
-0.0237838
0.178475
0.0529485
0.651615
0.638118
0.645699
0.643562
0.654636
0.640335
0.621466
0.622282
0.6401
0.646415
0.480693
0.248677
0.199024
0.160556
0.643235
0.513889
0.56238
0.488215
0.52164
0.524164
0.522822
0.504142
0.511743
0.507256
0.513807
0.517456
0.526035
0.526524
0.521761
0.523892
-0.0563026
-0.0619951
-0.0262756
-0.135858
-0.128545
-0.190782
-0.0600835
0.0745866
0.0361609
0.236888
0.340093
0.051633
-0.0573633
-0.0302292
0.0124651
0.179614
0.208381
0.0730477
0.160238
0.152138
0.132908
0.235918
0.23903
-0.0318722
-0.033093
-0.0381499
-0.0412579
0.0168586
0.0882197
0.0976829
-0.0102553
-0.0152934
-0.0496953
-0.0512305
-0.0240605
-0.0289516
-0.0241952
0.00308894
-0.0535076
-0.0214436
-0.00770761
-0.00835013
-0.00800078
-0.0134643
0.517873
0.519619
0.519849
0.528482
0.540539
0.555312
0.521306
0.497306
0.488072
0.491081
0.464022
0.474301
0.47018
0.483746
0.50499
0.513509
0.511824
0.514623
0.496999
0.498742
0.485241
0.488898
0.464073
0.444609
0.432576
-0.0434422
-0.00512231
-0.0133016
-0.0388381
-0.00929452
-0.021179
-0.0131344
0.00632735
-0.0106276
-0.0115164
-0.0218481
-0.0282313
-0.0276575
-0.0733947
0.0135848
-0.185561
-0.220517
-0.294165
0.890151
1.01439
0.808954
0.581698
0.60262
0.846158
0.930188
0.541874
0.734493
0.757537
0.588174
0.855245
0.526516
0.526108
0.523708
0.523186
0.524409
-0.00709681
0.099832
0.0966542
0.161087
0.277746
0.389066
0.321234
0.195681
0.32544
0.327823
0.620918
0.632957
0.588938
0.612855
0.613609
0.424801
0.50042
0.552189
0.513284
0.565859
0.58768
0.541184
0.574591
0.523469
0.478665
0.474787
0.424423
0.444006
0.419486
0.402623
0.516634
0.493505
0.504392
0.494646
0.516458
0.543405
0.54046
0.562676
0.577704
0.497726
0.452766
0.462096
0.492307
0.453866
0.46941
0.485215
0.234041
0.136478
0.219237
-0.0651242
0.00430855
-0.00778863
-0.0566843
-0.00469724
0.279319
-0.41075
-0.387835
-1.01385
0.505387
0.952373
0.578901
0.557209
0.655909
0.644014
0.650343
0.667047
0.661726
0.631783
0.640227
0.644986
0.591058
0.611943
0.629906
0.625892
0.523953
0.379683
0.379937
0.326751
0.197044
0.23734
0.432723
0.357118
0.282413
0.282484
0.455878
0.342095
0.412716
0.445226
0.376391
0.331128
0.534352
0.600751
0.593672
0.567567
0.476801
0.48857
0.51325
0.546698
0.569912
0.603444
0.51325
0.519207
0.52044
0.517907
0.515166
0.518275
0.518554
0.521162
0.521737
0.524775
0.523857
-0.0531054
-0.0395914
-0.05045
-0.0618408
-0.0183984
-0.021325
0.022079
0.00964736
-0.0168707
-0.012631
-0.0337389
-0.0377964
-0.0346583
-0.0271678
0.102206
0.114814
0.0995274
0.0594011
0.250326
0.380047
0.454436
0.329207
0.223679
0.247842
0.266393
-0.0140815
0.011456
-0.00106793
0.0382963
0.0304789
-0.0414268
-0.0456708
-0.0419018
-0.0332944
-0.0251531
-0.0425537
-0.0485418
-0.0390619
-0.0439818
-0.0476706
-0.0519345
0.49958
0.493059
0.494663
0.488593
0.487309
0.501548
0.505861
0.507805
0.513257
0.5156
0.505641
0.511067
0.515054
-0.0140629
-0.0371385
-0.040395
-0.0331608
-0.0341477
-0.0315654
-0.0332844
0.124015
0.0551519
0.0587918
0.0114573
-0.121491
-0.0633405
0.492877
0.491595
0.480448
0.72177
0.570962
0.492033
0.589216
0.694909
0.277026
0.47325
0.30873
0.888474
0.785495
0.931697
0.542393
0.246806
0.412311
0.453617
0.267915
0.344436
0.32364
0.212868
0.243462
0.282611
0.381151
0.266881
0.244001
0.000284646
0.191426
0.302733
0.284675
0.408626
0.468974
0.268379
0.187813
0.142743
0.605094
0.624773
0.638192
0.610168
0.632898
0.581557
0.573619
0.588993
0.597002
0.590883
-0.742284
-0.44854
-1.39586
-0.720273
-0.263944
0.535945
0.509577
0.769891
0.644351
0.675078
0.659431
0.619653
0.590124
0.616102
0.63721
0.338013
0.448578
0.423625
0.429879
0.332783
0.262632
0.561356
0.559145
0.591716
0.615743
0.587966
0.618385
0.511052
0.510772
0.51024
0.506478
0.504736
0.507085
0.0576335
0.0249005
0.0662137
0.048476
0.0262441
0.0146821
-0.0145051
-0.0247657
-0.0310989
-0.0300655
-0.0155108
-0.0117187
0.173204
0.110054
0.0304298
0.0591689
-0.00192521
-0.0704398
-0.0899155
0.0162807
0.112548
0.102687
0.405798
0.654729
0.47484
0.642286
0.485231
0.540912
0.468679
0.459729
0.484462
0.38059
0.461133
0.254153
-0.25453
-0.163935
0.796086
0.806051
0.581272
0.407902
0.175123
0.350862
0.539486
0.468516
0.5039
0.572876
0.559488
0.0327602
0.0890628
0.379938
0.606726
0.242587
0.233476
0.226809
0.412499
0.329926
)
;

boundaryField
{
    wall-4
    {
        type            zeroGradient;
    }
    velocity-inlet-5
    {
        type            zeroGradient;
    }
    velocity-inlet-6
    {
        type            zeroGradient;
    }
    pressure-outlet-7
    {
        type            fixedValue;
        value           uniform 0;
    }
    wall-8
    {
        type            zeroGradient;
    }
    frontAndBackPlanes
    {
        type            empty;
    }
}


// ************************************************************************* //
