/*--------------------------------*- C++ -*----------------------------------*\
| =========                 |                                                 |
| \\      /  F ield         | OpenFOAM: The Open Source CFD Toolbox           |
|  \\    /   O peration     | Version:  2206                                  |
|   \\  /    A nd           | Website:  www.openfoam.com                      |
|    \\/     M anipulation  |                                                 |
\*---------------------------------------------------------------------------*/
FoamFile
{
    version     2.0;
    format      ascii;
    arch        "LSB;label=32;scalar=64";
    class       surfaceScalarField;
    location    "76";
    object      phi;
}
// * * * * * * * * * * * * * * * * * * * * * * * * * * * * * * * * * * * * * //

dimensions      [0 3 -1 0 0 0 0];

oriented        oriented;

internalField   nonuniform List<scalar> 
1300
(
3.75095
5.62643
-3.31389
3.75095
-7.76143
5.62643
-4.39718
4.39718
-0.331281
0.331281
1.87639
1.87457
-2.68965
2.68965
-2.0407
2.0407
-2.52146
2.52146
-5.24637
5.24637
-5.06858
5.06858
4.65262
-4.65262
-6.31518
6.31518
-0.938698
0.938698
-3.6855
3.6855
3.16959
-3.16959
-2.02655
2.02655
0.0680034
-0.0680034
-0.55347
4.30442
3.19748
3.19748
-2.01058
2.01058
-4.86888
4.86888
6.21791
-6.21791
5.29848
-5.29848
-1.98459
-2.4713
1.80769
-11.4843
-5.95375
-5.95375
-8.44038
8.44038
-2.81395
2.81248
2.94638
-2.94638
-1.77075
1.77075
-4.36028
-0.036902
-4.36028
4.36653
0.0306517
4.36653
-0.439336
0.108055
-0.439336
4.00527
-4.00527
0.232863
0.0984182
0.232863
3.06538
-3.06538
-1.87712
3.7535
1.87384
-1.8719
6.17632
-1.87905
3.75362
-6.01433
6.01433
-2.93406
0.244408
-2.93406
2.47773
0.211928
2.47773
-6.84924
6.84924
-2.08472
0.0440199
-2.08472
2.00927
0.0314311
2.00927
2.88181
-2.88181
-2.62872
0.107255
-2.62872
2.39268
0.128788
2.39268
0.353517
5.27291
-5.97995
8.79243
-5.27291
0.0265426
5.2083
0.0380714
5.2083
-5.10595
0.0373782
-5.10595
5.01373
0.054849
5.01373
4.73732
-0.0846966
4.73732
-4.77118
0.118555
-4.77118
-3.37032
-4.04953
-6.46478
0.149604
-6.46478
-1.03055
0.0918525
-1.03055
0.823068
0.115629
0.823068
-3.6872
3.6872
-4.10674
0.42124
-4.10674
3.12396
0.0456372
3.12396
1.86849
1.88247
5.61944
-5.61944
2.44985
-1.98905
-0.037507
-1.98905
-2.10208
-3.1964
2.10208
-0.075532
-0.152712
0.220715
-0.152712
3.15945
0.0380366
3.15945
2.23716
0.15552
-2.23716
0.226579
3.27879
-3.27879
1.33751
0.673064
1.33751
-5.56476
5.56476
4.95647
0.0572588
-4.95647
0.0875902
6.15622
0.0616876
6.15622
-6.19953
-0.0183758
-6.19953
2.52678
-4.99807
-2.6296
6.13438
0.180798
-6.13438
0.180633
2.91835
0.0280335
2.91835
-2.9191
2.9191
-2.98481
0.0384312
-2.98481
-2.16931
0.39856
-2.16931
1.47254
0.298213
1.47254
-4.26281
-0.0974667
-4.26281
-4.25582
0.149085
4.25582
0.110707
1.13105
-1.13105
-0.575912
0.136576
-0.575912
-4.12884
-0.133974
4.12884
-0.123572
-3.8943
-0.11097
-3.8943
-3.02459
0.0397811
3.02459
0.0407885
3.1129
0.0465455
-3.1129
0.0475188
-1.87081
3.75328
-1.88014
3.75397
-5.63496
-0.379376
-5.63496
6.32504
-0.310704
6.32504
3.32697
0.358525
-3.32697
0.392912
2.30781
0.169916
2.30781
-6.811
-0.0382429
-6.811
6.83467
0.0145708
6.83467
2.17834
0.129472
-2.17834
0.0936193
1.98508
0.0241892
1.98508
2.90212
-0.0203089
2.90212
-2.87579
-0.00601377
-2.87579
2.79133
-2.79133
2.71659
0.0747483
-2.71659
0.0878661
-11.1329
11.1146
-0.0350401
-11.0979
5.17326
5.17326
4.16351
0.573807
4.16351
-4.98994
0.218759
-4.98994
2.68945
-5.31905
3.08724
-6.45756
4.65908
-16.1434
4.29353
-8.34306
6.70265
-6.70265
6.59252
0.110128
-6.59252
0.127742
-1.14945
0.118904
-1.14945
-3.08566
-0.601534
-3.08566
4.32871
-0.641513
4.32871
-3.02811
3.02811
-3.07741
0.0492951
3.07741
0.0465466
1.97546
0.00962198
-1.97546
-0.0135888
0.175498
0.0573653
-0.175498
0.022786
3.49307
-0.214281
3.49307
-3.07988
-0.198906
-3.07988
-1.2484
0.0989481
1.2484
0.0891113
-5.8134
0.248645
-5.8134
-11.1909
0.0929928
-11.1528
-6.10654
-6.10654
2.33384
11.1263
-2.8937
0.0179104
2.8937
0.0246437
2.97508
0.0530375
-2.97508
0.0559761
-2.85841
0.0670745
2.85841
0.0606926
-2.54387
0.374558
-2.54387
-1.07209
1.07209
-1.23676
0.164677
1.23676
0.235774
1.4037
-0.272655
1.4037
0.705065
0.118003
-0.705065
0.129153
-3.79339
-0.100908
-3.79339
6.56005
-0.235013
6.56005
-2.96443
-0.11545
2.96443
-0.0623136
-0.033362
11.1479
-5.1399
0.0339429
5.1399
-11.2096
11.2435
-3.21412
0.670247
3.21412
0.949399
5.28441
0.280352
-5.28441
0.294469
6.78571
0.0489581
-6.78571
0.0830612
-2.59325
-0.492413
-2.59325
-5.05359
-0.581364
5.05359
-0.724884
-11.474
-0.204604
11.6786
-11.4191
6.01801
0.138216
-6.01801
11.3818
-1.03092
-0.100124
1.03092
0.0411647
1.7314
-0.327699
1.7314
3.69049
-0.19742
-3.69049
-0.102902
-6.71417
-0.0968299
6.71417
-0.154119
-2.1484
-0.444849
2.1484
-0.417
-4.26713
4.30516
1.9092
-2.38387
-2.6142
-5.58027
1.85184
1.90144
4.30169
-10.1313
-6.01206
-9.95068
7.26161
-6.96715
-9.23978
9.15509
7.90104
-8.01201
-5.78479
5.83134
6.48294
-6.44216
1.87882
1.87468
8.0219
-7.77749
-15.5903
15.2109
7.57032
-7.5263
15.7382
-15.7765
-17.8158
17.8648
-5.70728
5.81454
-6.74057
6.73456
-6.97663
6.91431
-2.83555
-3.62201
13.0895
-12.9399
8.59347
-8.63098
-8.62129
9.04253
3.3826
0.922561
3.42915
-1.88214
3.76096
-1.87148
3.78068
2.73006
-5.56561
2.58899
-5.20319
4.36817
4.22531
-4.29263
-1.28764
-5.9249
5.95294
-5.81296
5.87366
9.14365
-9.18056
-1.88517
3.75986
-1.8688
3.77024
-3.42501
-2.35978
3.37938
0.922314
8.05693
5.03255
-8.23772
-1.71295
-8.04511
7.84769
-8.23315
8.03425
-0.433099
5.81839
-5.38529
4.43578
-1.56367
7.38206
5.69794
5.9167
5.86622
-5.58587
1.10092
-6.48621
-6.39862
-2.23436
2.37093
2.15057
-2.05215
6.14962
1.75142
6.02605
-5.76621
-2.2458
-5.86711
3.82058
2.01075
3.86988
4.0785
2.40445
4.11828
3.03042
-3.03598
0.00555659
-3.05665
6.08707
0.723877
-5.41643
-4.49411
4.97684
3.04505
5.18877
-5.55548
-2.22201
-5.16256
-9.53094
-6.05939
-10.1123
10.0733
5.1376
9.76264
-11.9423
11.7882
4.81737
2.75295
4.8488
-4.95933
-2.56698
-4.86571
11.631
-2.63754
-8.99342
-10.3014
-7.51438
10.2869
5.45136
10.9421
6.92263
11.0252
4.41631
7.21465
-9.86767
2.3533
-3.86828
-1.83901
-3.78041
3.67557
2.13896
3.80436
-4.2176
-2.52298
-4.19969
-4.29595
-2.68068
4.31625
2.41831
-4.41783
-3.81533
4.53327
2.38104
4.033
-10.0451
4.31006
-7.93207
-9.17843
-3.76144
-9.05068
3.531
2.60931
-6.14032
-2.03461
8.52544
-4.30013
7.2378
-5.1872
-3.44378
-5.20079
-6.88613
-1.73516
-6.73705
-8.87189
8.37948
-9.16787
8.52636
12.5004
-5.63826
-6.86212
-3.96846
-2.47369
3.92094
-0.491796
-3.71046
3.71602
0.0504977
3.83118
4.75374
4.26194
-3.8842
-1.92877
-3.82822
3.82401
2.04965
3.89108
6.84241
2.30124
6.87306
-6.61731
-2.56324
-6.71478
9.03252
-8.63396
2.83296
-2.73402
5.4005
2.63374
-5.18622
-2.85889
6.20982
-3.21994
-2.98988
-12.1988
10.5264
1.67239
-4.81671
-0.380928
-0.448932
-5.48732
-3.75246
5.36877
0.547932
11.0743
7.32185
-5.51288
5.76153
6.16571
6.22297
-0.175656
5.80214
-5.13189
5.25268
-2.61026
-2.64242
5.479
-5.61298
-1.23578
-5.52899
4.29321
0.413069
1.45673
-1.23602
-1.76919
-0.465165
-1.64004
1.25061
0.899957
1.30798
0.956521
1.41441
-2.95609
0.529687
2.4264
-1.99956
-1.52247
-3.83559
-1.14597
4.98155
5.74252
2.10517
-5.63962
-0.227498
2.51691
-2.40129
-0.78924
-3.04635
2.25253
-3.04177
-3.66815
-2.08873
5.75688
-3.36956
-0.458657
3.31653
0.553353
-3.82725
-2.09766
3.78882
0.329464
-3.12874
6.19144
-3.0627
-5.05751
2.52752
3.55955
4.53827
-4.7895
2.44774
2.34176
-1.22995
4.24604
0.942735
4.41595
-6.94011
4.71809
5.80569
3.23684
-6.16422
1.00165
-5.93845
8.55166
-7.37674
-1.17492
4.17029
4.38138
7.05623
5.44415
-5.66913
12.7254
-1.20737
-6.16938
7.14582
-3.90898
4.85175
-8.76073
-10.2959
4.12653
-9.12641
10.8979
-1.77151
-3.61865
-8.32366
12.7451
-1.20397
-11.5411
8.55867
-4.28777
-4.39611
8.68388
-6.92532
6.96309
-1.99574
-4.96735
-10.0897
-5.68679
10.1865
1.60167
-9.9276
12.2809
-2.71295
4.12523
0.723574
4.14942
3.30536
-5.48597
2.18062
3.61996
-5.6157
2.08373
-7.5697
-6.71722
12.0482
-5.331
-10.4787
-9.49835
-0.980314
2.53279
9.74811
-9.45541
7.4137
2.04171
3.30051
0.590571
-3.37526
-0.405155
0.235909
4.51586
-4.75177
4.04027
4.19579
3.26618
1.24968
3.84559
2.10735
-3.87023
-0.329454
-4.16434
1.48366
-1.74603
-3.69438
5.17804
-4.06739
0.373012
-2.74449
-3.49734
6.24183
-4.5835
3.03542
3.15602
5.08507
-4.91298
1.41564
-2.39259
-2.52039
2.65175
-4.39778
1.99388
3.18416
4.37492
0.559592
5.86882
6.1794
-8.47814
0.546071
11.2119
-9.49899
2.46112
8.56409
-9.87482
0.37647
-8.67421
0.997587
-5.29772
-5.14273
5.19705
-6.93221
-3.56368
6.21618
0.656876
-6.32689
-0.410156
-6.03054
-2.84134
-6.47539
-3.04067
-6.1272
-8.7098
-1.65075
-7.05906
6.72873
-6.67624
-3.43606
7.40112
1.12523
-7.40517
7.30504
-7.48367
7.15597
0.0954325
3.62059
4.35738
1.88368
-2.39064
4.27432
-5.12183
7.42308
-8.7238
3.60197
4.20649
-6.76973
-4.51731
5.01822
4.0143
5.31643
8.87476
-10.3384
1.4636
-10.6409
11.9743
-1.33337
-16.3969
5.756
-7.52216
2.43394
0.399027
2.55284
0.542561
2.49677
-3.03933
-2.19146
-2.10234
-2.44099
-3.46534
5.90633
1.0868
-3.53096
2.44416
-3.56708
4.65388
-0.217248
-3.31372
5.26698
-2.77021
5.66601
-3.78433
1.88168
3.43961
5.75471
-2.3151
4.39506
-1.76132
1.92917
-4.24427
-1.53617
-2.95792
5.09689
-3.2839
3.65692
-0.345118
4.00203
-4.04767
0.827729
-0.78149
3.4143
3.64088
4.3166
-3.06692
2.91754
-4.67886
-1.32673
-4.11927
-0.935111
-0.255756
-3.69634
3.9521
5.97289
-6.22865
-5.23047
9.52045
-4.28998
7.68773
-5.37792
-2.30982
-4.24862
-4.38533
3.87406
1.92807
9.61581
0.208742
-5.58666
-4.92315
-3.97375
3.098
2.15468
-1.73209
3.40447
2.18102
-0.724285
0.423973
0.884006
1.78145
-1.35747
0.329227
1.45222
-0.906792
1.70155
0.815365
-1.81955
0.179515
-1.32504
3.57757
1.10136
-2.00132
0.643846
0.973142
-3.58341
5.06659
-2.6929
-2.37369
6.03974
1.13836
-3.83126
4.39063
-3.97756
2.39527
-3.54123
-1.436
-5.41356
-3.66214
-2.51819
4.96236
-3.38814
5.49331
1.29421
-5.26581
6.56002
-3.72839
1.63966
-3.05058
3.86594
-0.925488
-2.12509
2.90305
2.85383
-3.08168
0.0353289
-0.178624
2.40898
-2.5876
-0.632791
-2.63236
-4.57358
4.90304
-2.10519
4.55293
2.16913
-1.91722
6.47015
1.80868
-3.7259
-3.24882
-3.70748
-1.38414
3.15413
-0.574218
-4.29149
-5.54157
4.16202
0.253935
-7.05688
7.87687
-0.81999
-4.01182
-0.70627
4.87656
-6.08793
0.472236
-4.00421
3.87266
4.8154
5.06933
-11.3218
-0.219298
-6.18419
1.12257
-7.30675
5.50394
-3.535
7.66153
-10.3156
6.87953
-9.19036
6.48661
-0.820146
6.23902
-4.0584
2.7544
-8.44119
-6.83952
5.55065
-2.7977
6.27422
-3.17324
9.44746
-5.88619
5.33847
4.10899
-1.03323
-4.16756
-5.32995
4.29672
0.00852212
4.15794
4.98034
-2.87299
4.65088
2.26988
-4.66247
-2.12791
-6.49587
1.8334
-3.33985
-1.92118
3.75458
3.16389
3.75446
1.23419
-3.3493
7.19381
-8.17412
-1.86281
-3.27992
5.31371
-1.01699
3.42778
-6.7077
-1.86993
4.78692
-0.780064
-4.00685
0.851344
-4.41503
1.67494
-6.08997
5.25727
-5.66742
2.22184
-9.744
-5.18333
-5.14216
-2.25827
-5.2254
-7.56299
5.30472
-1.80699
5.49806
-8.49505
7.71499
-3.47924
8.78396
-5.42542
-1.04997
5.84242
1.31355
10.0975
0.223152
-4.74046
-1.92076
3.83977
-1.91901
1.17724
-3.47319
0.366575
2.49272
3.54702
-6.78593
0.0162018
-4.72426
-3.91484
7.92913
5.60561
11.5785
1.24015
9.10892
-1.17978
10.3491
4.13665
4.37242
-2.9838
4.44739
0.968304
4.57028
-0.927935
2.80962
1.62491
1.71676
0.684526
2.3029
1.33798
3.13063
0.0913029
-2.01104
4.6191
-8.59285
-0.967554
-8.01905
1.13604
5.70606
-4.57002
2.93246
-0.777787
1.01346
-0.123686
-1.2077
1.33138
-2.7661
-1.93198
-0.479762
-1.70013
2.34398
1.87743
-1.86422
-0.90189
0.356301
-4.01844
3.18493
-3.1496
-0.295778
6.26424
-2.8178
0.230202
-1.17814
-2.40215
-2.86732
2.6878
6.17617
0.293974
3.11348
5.19702
3.09936
0.226373
3.88334
-5.65485
-3.68636
-5.87415
-0.37021
4.50635
1.76444
7.98367
5.87343
4.85644
-1.85126
-10.0254
6.51028
-2.06289
5.17691
-1.17006
-4.91991
5.04927
2.37381
-5.70615
0.0387225
-4.88119
-6.94408
-0.511816
8.22681
-9.58569
8.53572
5.69438
1.36468
-4.40176
-0.740405
4.23708
0.135343
10.4844
-1.12916
-6.7099
7.83907
-4.57689
3.60934
0.737271
2.6672
2.06865
1.29087
-5.41904
-9.98905
-2.06707
-1.51633
-4.44077
0.540787
-2.41822
6.21843
-2.60909
3.90861
5.22998
6.24343
-2.12896
-4.09969
6.41894
-2.51032
3.73311
)
;

boundaryField
{
    wall-4
    {
        type            calculated;
        value           uniform 0;
    }
    velocity-inlet-5
    {
        type            calculated;
        value           uniform -3.75095;
    }
    velocity-inlet-6
    {
        type            calculated;
        value           uniform -5.62643;
    }
    pressure-outlet-7
    {
        type            calculated;
        value           nonuniform List<scalar> 8(3.31389 7.76143 4.45589 9.6766 7.41985 5.15638 5.77669 8.95261);
    }
    wall-8
    {
        type            calculated;
        value           uniform 0;
    }
    frontAndBackPlanes
    {
        type            empty;
        value           nonuniform List<scalar> 0();
    }
}


// ************************************************************************* //
