/*--------------------------------*- C++ -*----------------------------------*\
| =========                 |                                                 |
| \\      /  F ield         | OpenFOAM: The Open Source CFD Toolbox           |
|  \\    /   O peration     | Version:  2206                                  |
|   \\  /    A nd           | Website:  www.openfoam.com                      |
|    \\/     M anipulation  |                                                 |
\*---------------------------------------------------------------------------*/
FoamFile
{
    version     2.0;
    format      ascii;
    arch        "LSB;label=32;scalar=64";
    class       volVectorField;
    location    "76";
    object      U;
}
// * * * * * * * * * * * * * * * * * * * * * * * * * * * * * * * * * * * * * //

dimensions      [0 1 -1 0 0 0 0];

internalField   nonuniform List<vector> 
918
(
(0.98516 -0.000507968 0)
(0.00501443 2.96625 0)
(0.00752327 0.886382 0)
(0.979705 0.00214527 0)
(-0.0121424 2.06396 3.75479e-20)
(-0.00704917 2.94879 -2.45176e-18)
(0.821098 1.16597 4.5081e-19)
(0.0973634 0.0655055 -1.4565e-20)
(0.999909 -0.000275536 0)
(0.0662111 0.734471 0)
(0.0134139 0.479644 0)
(0.731733 0.00423419 0)
(0.0111393 2.93031 0)
(0.00292236 2.79507 0)
(-0.0178239 3.14764 7.81123e-19)
(-0.0212116 1.9179 1.03129e-20)
(0.286146 0.0565788 1.01817e-18)
(0.188952 1.14366 3.173e-19)
(0.962716 0.00501586 0)
(0.00744444 0.455744 0)
(-0.0123985 0.0463817 -6.79748e-19)
(1.00197 -0.00497452 0)
(1.00023 -0.00978359 0)
(0.97574 -0.00643875 0)
(0.598531 0.0294131 0)
(0.0138756 2.64211 0)
(-0.014787 2.90996 9.00831e-19)
(0.0111001 0.93202 0)
(-0.0189914 1.18238 0)
(0.013341 0.915447 0)
(-0.0145203 2.58888 0)
(-0.00109343 2.11766 -2.99888e-20)
(-0.0111305 1.89871 0)
(-0.0205958 2.98761 -8.80763e-23)
(-0.0166821 3.00529 1.90533e-18)
(0.00210309 3.00017 0)
(0.871455 -0.00965807 0)
(0.401978 0.931742 1.8073e-19)
(0.807345 1.17971 -5.15994e-19)
(0.958425 1.02624 5.61109e-19)
(0.675248 1.2715 -1.04748e-19)
(0.675601 1.24522 6.01551e-19)
(0.127771 0.119852 1.42079e-20)
(0.132199 0.0566133 0)
(1.16452 0.565157 0)
(0.0984788 0.0899299 6.41902e-20)
(0.064507 0.0458448 -6.66143e-20)
(0.919924 -0.00745865 0)
(1.00027 0.000162382 0)
(0.999909 0.000339157 0)
(1.00363 -0.00775782 0)
(1.00096 -0.000918861 0)
(1.00017 3.78858e-05 0)
(0.0729234 1.82608 -7.69756e-19)
(0.0324442 0.947626 0)
(0.0980116 0.814573 0)
(0.014709 0.896774 0)
(0.0420676 0.651816 0)
(0.00684485 2.01503 0)
(-0.00188817 0.77835 0)
(0.0144587 0.500051 0)
(-0.00848397 0.770981 0)
(0.00897082 0.467712 0)
(0.842076 -0.0156575 0)
(0.842089 0.0275219 0)
(0.758825 0.000867094 0)
(0.801212 0.0285177 0)
(0.70054 0.0171671 0)
(0.0146848 3.00041 9.08607e-19)
(0.011496 3.0081 0)
(0.00610468 3.00275 0)
(0.0135567 2.99738 1.03063e-23)
(0.00795403 2.95846 -1.35041e-18)
(0.014492 2.98196 0)
(0.0108731 2.90359 0)
(0.0245321 2.93048 2.05982e-24)
(0.00462186 2.82514 0)
(0.0308628 2.91641 0)
(-0.00511371 2.74631 0)
(0.304506 3.53973 0)
(-0.131503 3.62027 0)
(0.137361 3.23748 -7.26903e-19)
(-0.0137189 2.97617 0)
(-0.0257318 1.98583 0)
(-0.00684675 2.16995 -1.01716e-20)
(-0.0151768 1.92621 4.84756e-21)
(0.339046 0.139316 -3.53606e-19)
(0.317339 0.0332419 -3.43617e-19)
(0.293685 0.143438 -1.05855e-18)
(0.248843 0.0637353 -6.87516e-19)
(0.229617 0.984806 0)
(0.272549 1.29388 -3.68813e-19)
(0.366542 1.22869 6.15267e-19)
(0.987429 0.00857471 0)
(0.941845 0.00582395 0)
(1.0003 0.000581512 0)
(1.00286 0.0093101 0)
(1.00301 0.00847296 -2.74532e-18)
(0.991906 0.00969521 2.07316e-18)
(-0.0120986 0.771573 0)
(0.00907271 0.461286 0)
(-0.0497577 1.00824 0)
(-0.0288141 0.818958 0)
(0.00357109 0.460086 0)
(-0.0669783 0.0912954 2.10896e-19)
(0.0455209 0.0532431 0)
(0.993555 -0.0083689 0)
(0.954473 -0.00653383 0)
(0.744631 0.0283814 0)
(0.679141 0.0273802 0)
(0.66073 0.0243742 0)
(0.972386 -0.00714567 0)
(0.589034 0.0732933 0)
(0.455135 -0.00508018 1.54173e-18)
(-0.0369938 2.86237 6.61044e-19)
(0.0410887 2.91034 0)
(0.0537551 2.88598 0)
(-0.00434613 2.70099 0)
(-0.0133033 2.98505 8.52526e-19)
(-0.0178572 2.89487 0)
(-0.0154818 2.98803 -2.64451e-18)
(-0.0132556 2.92514 9.05712e-19)
(-0.031863 1.34881 0)
(-0.00483331 1.37862 0)
(-0.00707424 2.13534 5.2333e-22)
(-0.00616292 2.0973 0)
(-0.0233611 1.90571 0)
(0.938693 -0.00735962 0)
(0.857647 -0.00997322 0)
(0.863129 0.0049895 0)
(0.949661 -0.00778923 0)
(0.884129 -0.00819968 0)
(0.513229 1.12453 -2.28168e-19)
(0.562417 1.1755 0)
(0.366715 0.876777 3.36759e-20)
(0.309531 0.735488 0)
(0.9205 1.06257 -1.54984e-19)
(1.03964 0.872402 3.16387e-19)
(0.359534 1.35581 0)
(0.527476 1.32704 0)
(0.549585 1.26552 0)
(0.121376 0.18518 -3.02938e-19)
(0.161317 0.120654 0)
(0.175119 0.0844432 1.89886e-19)
(1.01045 0.926728 0)
(1.08495 0.780508 0)
(1.11022 0.722219 -2.52789e-19)
(1.14389 0.624587 0)
(1.19423 0.408021 5.76667e-20)
(0.957801 -0.00868341 0)
(0.962538 -0.0100216 0)
(0.901798 -0.00798971 0)
(0.98421 -0.00914049 0)
(0.974725 -0.00932301 0)
(0.937151 -0.00637515 0)
(1.00019 0.00234093 0)
(1.0009 0.00141644 0)
(0.999909 0.000856073 0)
(0.0355158 2.07275 4.26684e-19)
(0.118617 1.76916 0)
(0.0181156 2.18629 6.55297e-19)
(0.0459744 1.8803 -5.45814e-19)
(0.106574 1.14899 -2.59832e-19)
(0.0495763 1.02794 0)
(0.142854 0.980656 0)
(0.00814262 0.851102 0)
(0.0218608 0.587362 0)
(-0.000813017 2.24149 -7.8946e-22)
(0.0160051 2.01892 0)
(-0.00164707 2.24387 -2.71208e-20)
(0.00825658 2.02464 4.10492e-20)
(0.00462561 0.81963 0)
(0.00346165 0.79325 0)
(0.0146815 0.53786 0)
(-0.00939898 0.765139 0)
(0.00458709 0.459831 0)
(0.938801 0.00985607 0)
(0.850829 -0.014592 0)
(0.92788 0.000485233 0)
(0.842851 -0.0128627 0)
(0.810485 -0.00116018 0)
(0.898933 0.0215729 0)
(0.874764 0.0252559 0)
(0.784414 -0.00157928 0)
(0.00563335 3.0648 -8.46116e-21)
(0.0165942 3.05766 0)
(0.0145956 2.96902 0)
(0.00866953 2.87626 0)
(0.919443 3.9513 0)
(1.23244 3.285 9.2473e-19)
(0.0687739 3.06863 0)
(-0.0297291 2.90178 0)
(-0.00910304 1.40126 0)
(-0.0311633 1.69746 0)
(-0.0178612 1.5339 0)
(-0.0301541 2.54773 -8.61418e-21)
(-0.0139248 2.24027 0)
(-0.0199117 2.38755 0)
(-0.00114887 1.95248 7.10359e-22)
(-0.00339229 2.24042 -9.14423e-21)
(-0.00529343 2.20461 -5.09952e-21)
(-0.00906544 1.93747 0)
(0.391254 0.122863 5.40338e-19)
(0.365644 0.0205479 -5.30197e-19)
(0.258576 1.58544 0)
(0.278019 0.757964 -3.15686e-19)
(0.176874 1.67268 -1.04711e-18)
(0.225777 1.22081 1.04939e-18)
(0.901966 0.00623545 0)
(0.967366 0.0111655 0)
(0.974527 0.0108191 0)
(0.923263 0.00638762 0)
(-0.011906 0.763583 0)
(-0.0125667 0.765401 0)
(0.00602104 0.454707 0)
(0.08889 0.068779 5.92033e-19)
(0.0832744 0.048869 -6.99589e-19)
(0.0431011 0.0387795 0)
(1.10123 0.0869553 2.69684e-20)
(1.08326 0.0399256 0)
(1.01466 0.0403385 0)
(0.908327 -0.00515599 0)
(0.444901 0.104037 0)
(0.504843 0.0869559 -2.46403e-18)
(0.40968 0.014272 9.21679e-19)
(0.00860889 2.98058 7.1138e-19)
(-0.033015 2.8648 4.52228e-20)
(0.00361527 3.05033 -1.79238e-20)
(0.0201779 3.04327 6.36957e-19)
(-0.0149704 2.99657 2.97544e-20)
(-0.012957 2.94945 -1.19666e-22)
(-0.017286 3.01192 -5.50668e-19)
(0.0149399 3.02361 3.99312e-19)
(0.00745494 3.03699 -6.32405e-19)
(0.93421 -0.0011576 0)
(0.939614 -0.00315906 0)
(0.84621 -0.00945305 0)
(0.956447 0.012077 0)
(0.942413 0.0136482 0)
(0.881544 0.00549021 0)
(0.916053 0.0182368 0)
(0.925339 0.0157231 0)
(0.837881 0.0013371 0)
(0.715581 1.40136 3.87386e-20)
(0.748849 1.50992 0)
(0.18058 0.31374 7.06304e-20)
(0.229561 0.669415 5.68054e-19)
(0.26236 0.71972 -3.31933e-19)
(0.262432 0.51888 6.60705e-19)
(0.346776 0.812701 1.59402e-18)
(0.141052 0.230866 3.76158e-19)
(0.248595 0.145703 7.27284e-19)
(0.204885 0.140324 1.88508e-19)
(0.213888 0.0727997 3.56913e-19)
(1.18317 0.466068 6.70555e-20)
(1.19816 0.258193 6.2148e-20)
(0.0102925 2.23478 2.51859e-19)
(0.0402344 1.94837 0)
(0.971516 0.0295785 0)
(0.943917 0.0140609 0)
(0.869859 -0.0177801 0)
(0.0114582 3.07445 0)
(0.0197861 2.94413 1.16511e-18)
(0.0163943 2.95641 0)
(0.00633787 2.85054 -1.15595e-18)
(0.00627082 3.09126 2.82774e-19)
(0.0069894 3.08217 0)
(0.781548 1.81113 -1.5815e-19)
(1.24025 2.48622 4.01179e-19)
(0.763479 1.95039 -1.22556e-18)
(0.019605 2.98087 -6.11475e-19)
(0.0347227 2.9989 0)
(-0.0347999 2.8765 0)
(-0.00376603 2.22363 -1.30487e-20)
(-0.00291176 2.24469 1.49767e-20)
(0.00156414 1.98708 -7.15098e-21)
(0.278291 1.3949 1.02455e-18)
(0.239561 0.553168 -7.02469e-19)
(0.0637029 1.9977 7.60978e-19)
(0.135097 1.88406 -9.08745e-19)
(0.180064 1.51211 9.51532e-20)
(0.00380059 3.11901 -1.70153e-18)
(0.0109015 3.11935 1.87257e-18)
(-0.00920012 2.98085 7.82864e-19)
(-0.00464658 2.97733 -7.36959e-19)
(-0.0211517 2.88043 -7.9734e-19)
(0.00839438 3.10012 -2.1017e-18)
(0.00198265 3.1048 2.11352e-18)
(0.283014 0.696235 0)
(0.249155 0.684883 -1.18234e-18)
(0.0959567 0.225115 5.24912e-19)
(0.358194 0.939948 1.11384e-18)
(0.19612 0.276991 -1.71736e-18)
(1.18882 0.175993 6.21037e-20)
(1.19849 0.31303 0)
(1.17723 0.123438 -5.0866e-21)
(0.00161123 2.25307 -1.44262e-21)
(0.00495991 2.2447 0)
(0.0245628 1.9843 0)
(0.34 1.30391 -3.67798e-19)
(0.375161 1.15168 -8.00141e-19)
(0.210837 0.379179 1.427e-18)
(1.00588 -0.0108243 0)
(1.00767 -0.00763151 5.06422e-19)
(-0.0268623 1.32966 0)
(-0.039774 1.3297 0)
(1.00221 0.00351626 1.81277e-21)
(1.00367 0.00947394 1.03407e-18)
(-0.0186121 2.53235 1.09174e-20)
(-0.0238346 2.5749 0)
(0.0335453 3.17656 4.03131e-19)
(0.389781 3.48255 0)
(1.178 0.666595 -5.57821e-20)
(1.01284 0.0131464 -2.12743e-21)
(1.02136 -0.0102715 0)
(1.0017 0.000132307 7.91252e-23)
(0.112598 1.37074 0)
(0.14321 2.56703 0)
(0.033471 1.3177 0)
(7.39355e-06 2.6179 2.60205e-20)
(-0.0213185 2.57454 1.43203e-21)
(0.999104 0.031227 2.39559e-21)
(1.06329 0.00485964 0)
(1.09799 0.0254304 0)
(-0.0296399 1.74095 0)
(-0.0181968 2.57548 0)
(-0.0081248 1.3176 0)
(0.311392 1.48318 -1.68506e-19)
(1.01131 -0.00960958 0)
(1.0094 -0.0149145 0)
(1.00237 0.000756701 6.47219e-19)
(1.00547 -0.00479589 -7.6069e-19)
(1.00118 -0.000964543 0)
(-0.0163512 1.46867 0)
(-0.0068956 1.38087 0)
(-0.00884869 1.42619 0)
(-0.0121282 1.30478 0)
(-0.0224208 1.29193 0)
(-0.0138182 1.27522 0)
(1.0351 -0.00599913 0)
(1.01953 0.0157007 -9.50972e-22)
(0.823514 1.27566 2.62238e-19)
(1.00223 0.000324079 -6.44706e-19)
(1.00406 0.00526544 7.54836e-19)
(1.00118 0.0020782 0)
(1.01271 0.0103772 6.41684e-19)
(1.00798 0.0083177 -7.77494e-19)
(1.00856 0.0146975 0)
(-0.0233632 2.60307 0)
(-0.025472 2.58248 -1.97882e-20)
(-0.0227379 2.59668 1.40314e-20)
(1.23928 0.269462 5.77579e-19)
(1.16348 0.0876568 0)
(0.0389848 3.07809 -9.02961e-19)
(0.0648897 2.85658 -6.56377e-20)
(0.137787 3.19163 1.38557e-18)
(0.13263 3.21936 -1.94107e-19)
(0.132336 3.22996 0)
(0.0189106 3.13735 2.33033e-19)
(0.0737209 3.15956 8.90355e-19)
(0.0663987 3.18482 -4.39307e-19)
(0.0217206 3.12969 0)
(0.562256 0.282124 0)
(0.501312 0.303414 0)
(1.15003 0.702748 1.25454e-19)
(1.14319 0.824187 -1.07592e-19)
(1.20587 0.589583 0)
(1.23306 0.523378 0)
(1.01601 0.0133911 -1.19611e-18)
(1.01499 0.0142488 1.5016e-18)
(1.02541 -0.00978419 0)
(1.02348 -0.0118343 0)
(1.00642 0.00265384 0)
(1.01041 0.0037555 0)
(1.00458 0.00186981 0)
(1.00978 0.0062647 0)
(1.0078 0.00596971 0)
(1.00451 0.00472943 0)
(0.100872 1.36919 0)
(0.0986046 1.33192 0)
(0.131592 1.40545 0)
(0.149912 1.41023 0)
(0.145264 2.59219 0)
(0.184857 2.66267 -4.22308e-19)
(0.101551 2.6472 0)
(0.0852492 2.65012 1.97083e-19)
(0.0388098 2.6729 -1.46045e-19)
(0.0206361 1.33097 0)
(0.0279111 1.24983 0)
(0.023646 1.34095 0)
(0.0466435 1.27199 0)
(0.00364134 1.98163 5.59923e-21)
(-0.0201625 2.6024 -2.22279e-20)
(-0.00808257 2.65921 1.03643e-20)
(-0.0179185 2.67849 0)
(-0.0229831 2.60792 1.02908e-21)
(-0.0230447 2.60288 1.66777e-20)
(0.0124658 1.97964 -7.82811e-22)
(-0.0075653 2.38922 2.98197e-20)
(-0.0132025 2.41233 -1.17545e-20)
(1.01246 0.0396333 1.21128e-18)
(1.00496 0.020562 -1.5074e-18)
(1.0046 0.0467554 -1.23331e-18)
(0.978257 0.0386659 1.55215e-18)
(1.0645 0.0086678 0)
(1.04958 -0.00813836 0)
(1.095 0.0355632 0)
(1.07469 0.0132399 0)
(1.07249 0.000864115 0)
(1.14099 0.0843329 0)
(1.11249 0.0452676 0)
(1.11653 0.0330124 0)
(-0.0254221 2.42578 1.32823e-21)
(-0.0144582 2.01195 0)
(-0.0170039 2.21269 0)
(-0.0201304 2.59605 -1.20483e-20)
(-0.0173282 2.60616 2.40706e-22)
(0.0024637 1.58079 -3.8538e-20)
(-0.00758518 1.50881 3.92841e-20)
(-0.0176317 1.39851 0)
(-0.0209785 1.4049 0)
(-0.0274526 1.39948 0)
(-0.00602399 1.31892 0)
(0.0067682 1.23944 0)
(0.387265 1.50066 2.74464e-19)
(0.430531 1.50126 1.45466e-19)
(0.597259 2.44276 -2.40388e-19)
(0.39774 2.54007 7.06951e-19)
(0.348926 2.0501 7.15863e-20)
(1.02109 -0.0080887 0)
(1.01552 -0.00973282 0)
(1.01493 -0.015499 0)
(1.0074 -0.00105329 0)
(1.00493 -0.000903422 0)
(1.00779 -0.00467128 0)
(1.00928 -0.00358614 0)
(1.01424 -0.00434741 0)
(1.02026 0.0164844 1.17224e-18)
(1.0175 0.0154644 -1.49782e-18)
(1.02061 0.0187169 -1.18202e-18)
(1.01807 0.0170008 1.48075e-18)
(0.786718 1.32624 0)
(0.722305 1.37716 2.48288e-19)
(0.899603 1.22626 9.97587e-20)
(0.945498 1.17189 -1.32756e-19)
(1.15363 2.59727 2.81711e-19)
(0.7651 0.123311 6.00029e-19)
(1.16436 0.110384 0)
(1.21391 0.196303 -4.64975e-19)
(1.20145 0.156531 -1.98232e-20)
(1.0059 0.158728 0)
(0.127044 2.95849 5.2687e-19)
(0.102984 2.86414 -1.14552e-18)
(0.00873378 2.37671 7.63211e-19)
(0.10366 -0.173407 -3.1621e-19)
(0.334893 3.41292 -2.16787e-19)
(0.190293 3.30785 0)
(0.23448 3.34807 2.82335e-19)
(0.238142 3.03082 -1.76608e-18)
(0.331278 3.18893 0)
(0.00712859 3.12076 4.56312e-20)
(0.0170661 3.12957 -5.36864e-19)
(0.0154241 3.12567 7.90176e-19)
(0.0346978 3.13948 0)
(0.032845 3.15024 0)
(1.20865 2.59444 0)
(0.549 0.79881 -5.27065e-19)
(1.06946 0.996716 -1.11708e-20)
(1.00464 1.08097 0)
(0.858164 0.975511 -1.08866e-19)
(1.0961 0.89793 2.7807e-20)
(0.296348 0.31438 -8.29789e-19)
(0.645158 0.326474 -1.68709e-20)
(0.530442 0.219337 4.05058e-19)
(0.523776 0.336901 2.91327e-20)
(0.414089 0.269087 -1.16879e-18)
(0.600581 0.326512 0)
(0.71187 0.429922 6.61649e-19)
(0.709365 0.430648 0)
(0.564209 0.34324 0)
(0.475486 0.244344 0)
(0.831973 0.628191 4.06714e-19)
(1.24062 0.29201 -4.85724e-19)
(1.24117 0.431444 0)
(1.24928 0.371564 0)
(0.673514 0.196107 6.20988e-19)
(0.876873 0.559041 -3.70354e-19)
(0.776615 0.536545 6.61622e-19)
(0.963491 0.451071 -7.31665e-19)
(1.01902 0.0150398 8.03151e-19)
(1.01745 0.0143964 -8.07848e-19)
(1.01591 0.0152492 0)
(1.03657 -0.00554145 0)
(1.02996 -0.00833143 -7.57476e-19)
(1.02801 -0.0119308 7.49947e-19)
(1.02491 0.010744 0)
(1.02334 0.014619 0)
(1.01141 0.00418976 0)
(1.01417 0.00918813 0)
(1.01516 0.00422939 0)
(1.01426 0.00292577 0)
(0.072276 1.35295 0)
(0.0800827 1.29871 0)
(0.148388 1.38648 8.43363e-21)
(0.28199 1.48155 8.95309e-20)
(0.177023 1.45225 1.88215e-19)
(0.20964 1.45756 -3.06945e-19)
(0.177371 1.41189 0)
(0.135868 1.59961 -7.02479e-20)
(0.120518 1.57925 0)
(0.344709 1.99926 -1.04094e-19)
(0.341466 2.33633 6.12942e-19)
(0.196835 1.46577 6.12421e-20)
(0.269321 1.39835 2.34442e-20)
(0.202273 1.39119 -1.89243e-20)
(0.278847 1.34127 -1.03662e-19)
(0.242291 1.57858 0)
(0.269697 1.61534 1.12703e-19)
(0.0305046 2.25636 -2.84323e-20)
(0.043753 2.66218 0)
(0.0664299 2.39308 1.35118e-19)
(0.0632066 2.41394 0)
(0.0697295 2.66378 -2.18412e-19)
(0.0493197 2.69238 0)
(0.0284002 1.44829 3.71499e-20)
(0.0359264 1.49534 0)
(0.032942 1.4138 0)
(0.0274077 1.42082 -4.19218e-20)
(0.000741756 2.64551 -1.68479e-20)
(0.0297888 2.69132 1.63649e-19)
(0.0105116 2.71631 1.15046e-21)
(0.00481352 1.83921 -6.87042e-21)
(-0.00175349 1.69345 -4.72111e-21)
(0.0149924 1.30882 0)
(0.0229476 1.22336 0)
(0.0451743 1.5957 -2.99596e-20)
(0.0344921 1.47591 -3.59091e-20)
(0.0383739 1.53821 4.48358e-20)
(0.0401205 1.61945 0)
(-0.0293558 2.26613 1.00515e-19)
(-0.0303976 2.54275 -4.18252e-20)
(-0.0164736 2.4408 4.51991e-21)
(-0.00264061 1.85425 8.32309e-21)
(-0.0256081 2.49313 3.45623e-21)
(-0.0203716 2.43748 -4.20303e-21)
(1.01878 0.0220103 -8.03189e-19)
(1.01556 0.0283482 8.06505e-19)
(1.01273 0.0176849 0)
(1.00978 0.0712216 1.12946e-18)
(0.991894 0.0615745 -1.26138e-18)
(0.951037 0.0571087 1.41058e-18)
(1.01378 0.112061 -1.5042e-19)
(1.04302 -0.00551418 0)
(1.05147 -0.00108746 7.22238e-19)
(1.03932 -0.00968486 -7.23686e-19)
(1.0723 0.043192 -4.29495e-20)
(1.06524 0.0243955 3.70484e-19)
(1.063 0.0574342 0)
(1.05424 0.0507953 -1.33239e-19)
(1.03201 0.0423159 0)
(1.02645 0.039036 0)
(1.02802 0.0139232 0)
(1.02397 0.01656 0)
(1.04019 0.0332759 2.7442e-19)
(1.03875 0.0271559 -6.06755e-19)
(1.05156 0.0349137 -2.90869e-19)
(1.04831 0.0350701 -3.20325e-19)
(1.0718 0.0657088 6.25214e-19)
(1.09737 0.0535867 0)
(1.10678 0.0979819 0)
(-0.0250304 2.27101 5.59355e-20)
(-0.0244294 2.0176 1.12433e-21)
(-0.0205132 2.025 0)
(-0.0264249 2.43946 -5.56797e-20)
(-0.021692 2.39593 -2.39253e-21)
(-0.0326081 2.46665 5.73391e-21)
(-0.0203994 2.61533 -1.48491e-20)
(-0.0229174 2.55679 2.7259e-22)
(-0.0215661 2.50869 -4.16997e-21)
(-0.0155191 2.60911 1.18642e-20)
(-0.0205361 2.61119 -1.28917e-20)
(-0.00665019 1.50761 -8.23359e-22)
(0.00299738 1.6285 -3.72572e-20)
(0.372305 1.4496 -1.16003e-19)
(0.372223 1.38282 3.72614e-20)
(0.662909 1.42717 -2.40171e-19)
(0.529476 1.49401 -1.42903e-19)
(0.587661 1.45991 0)
(0.592986 2.41987 2.06907e-19)
(0.66154 2.41573 3.37563e-19)
(0.410906 2.50921 8.81178e-20)
(0.402177 2.53327 -6.07334e-19)
(0.509917 2.47397 6.13573e-19)
(0.55303 2.45656 0)
(0.487585 2.51445 -5.58864e-19)
(0.248042 2.58648 1.14094e-18)
(0.354458 2.55857 -7.71244e-20)
(0.283595 2.64821 -1.58365e-18)
(0.948175 2.37268 7.28994e-19)
(0.838086 2.3783 0)
(1.01108 0.000544472 2.62566e-20)
(1.01537 -0.0053463 -2.12972e-20)
(1.01769 -0.0034463 -3.8897e-19)
(1.01505 -0.000806536 3.91087e-19)
(1.01247 0.00129819 0)
(0.650036 1.29168 0)
(0.674056 1.18557 0)
(0.788259 1.10443 0)
(0.667217 1.1489 0)
(1.18375 2.61074 5.99673e-20)
(1.07172 2.35818 0)
(0.832903 2.16 3.86983e-21)
(0.823086 2.42697 0)
(0.921281 2.52107 -4.23425e-19)
(0.956466 2.47719 2.81637e-19)
(0.796177 0.184911 0)
(0.736639 0.156791 1.62907e-19)
(0.905458 0.152624 9.48835e-19)
(0.821641 0.156283 -3.54882e-19)
(0.776593 0.0906596 -1.09682e-18)
(1.08323 0.243407 -8.91253e-19)
(0.999947 0.307584 -1.80873e-20)
(0.927004 0.311395 8.58843e-19)
(1.00687 0.236875 7.21679e-19)
(0.947262 0.2009 -1.25513e-18)
(0.908701 0.205343 1.57042e-19)
(0.94668 0.27277 -3.32948e-19)
(0.925123 0.231912 0)
(0.996301 0.19776 6.18888e-19)
(1.0474 0.196238 0)
(1.04535 0.224758 0)
(1.1079 0.122432 2.89686e-19)
(1.07225 0.182636 -1.51719e-20)
(1.07651 0.243391 -1.57669e-19)
(1.10183 0.209049 0)
(1.02173 0.0466978 6.18246e-19)
(1.03944 0.0601314 7.72247e-19)
(1.03382 0.0457045 -6.14341e-19)
(1.04252 0.068191 -5.18159e-19)
(1.01841 0.0761729 -7.95892e-19)
(0.984603 0.161039 0)
(0.989156 0.106626 0)
(0.965718 0.0768176 -5.01781e-19)
(0.904107 0.098462 1.99835e-19)
(1.0403 0.108751 7.16196e-19)
(1.06951 0.125888 -8.35664e-19)
(1.0769 0.15846 7.46324e-19)
(1.0318 0.153294 0)
(1.07501 0.11315 0)
(1.05381 0.0939106 -3.42562e-19)
(1.04377 0.0994021 -5.84318e-19)
(0.578493 1.05132 1.41165e-19)
(0.602456 1.37427 -4.26714e-20)
(1.15369 2.72627 -2.29629e-19)
(1.21915 3.06883 2.65373e-21)
(1.24529 2.70942 -1.26453e-19)
(1.2735 2.69245 -3.01176e-20)
(1.20063 2.3326 -1.1216e-20)
(1.20693 2.97266 -9.58153e-20)
(1.22721 2.93825 2.37871e-19)
(1.20907 3.22149 -1.4164e-19)
(1.36839 2.95209 1.95684e-19)
(1.35658 2.87007 0)
(0.568358 0.808041 -5.05611e-20)
(0.103856 1.21767 5.68648e-19)
(0.563619 0.334786 5.43762e-19)
(0.401911 0.0804074 5.86586e-19)
(0.464762 0.310213 6.63402e-19)
(0.54769 0.426201 -1.07978e-18)
(0.550436 0.421129 8.84666e-19)
(0.459654 0.294211 -3.35781e-19)
(0.325096 0.223205 7.53023e-19)
(0.701624 0.272382 -3.5901e-19)
(0.658596 0.293804 0)
(0.589796 0.208054 6.13924e-21)
(0.746597 0.512068 3.58799e-19)
(0.728181 0.482452 -1.30435e-18)
(0.625695 0.445691 9.73589e-21)
(0.619051 0.436591 0)
(0.697422 0.717467 3.95472e-19)
(0.860574 0.781661 3.91758e-19)
(0.783977 0.8639 -4.58494e-19)
(0.905646 0.818954 -1.52649e-19)
(0.936353 0.864158 -3.67038e-20)
(0.943357 0.863776 3.75884e-20)
(0.871512 0.663914 -6.73539e-19)
(0.951487 0.716831 1.41734e-19)
(1.01097 0.731287 0)
(1.00182 0.70768 -1.91407e-19)
(1.02995 0.348422 2.11007e-19)
(1.15132 0.308851 2.86257e-19)
(1.07142 0.280919 3.64214e-19)
(1.02073 0.381154 -4.29379e-19)
(1.0695 0.443364 0)
(1.12559 0.423485 0)
(0.920981 0.384384 1.13361e-21)
(0.837696 0.319626 0)
(0.887249 0.31869 4.05729e-19)
(0.909865 0.31977 -8.50116e-21)
(0.958621 0.454731 2.03808e-18)
(0.920341 0.509879 5.23325e-19)
(0.924483 0.476615 -5.585e-19)
(0.838895 0.465278 5.99713e-19)
(0.823958 0.460283 3.59463e-19)
(0.793877 0.443377 -3.53055e-19)
(1.02745 -0.000147392 6.47966e-19)
(1.02003 0.000136084 0)
(1.01857 0.00106269 4.2252e-19)
(1.02176 -0.0014736 -9.57109e-19)
(1.02241 0.00460763 4.64977e-19)
(1.02031 0.0116728 -9.73686e-19)
(1.02122 0.0110427 0)
(1.02038 0.0112919 -2.02941e-19)
(1.01592 0.00792545 5.09169e-19)
(1.01655 0.0107258 -2.54072e-19)
(1.01726 0.0100699 1.8706e-19)
(0.0357583 1.32997 0)
(0.0415521 1.38528 0)
(0.0528085 1.32977 0)
(0.0606375 1.27712 0)
(0.0752771 1.40163 -4.99447e-20)
(0.0857757 1.36718 2.19864e-20)
(0.11343 1.54884 -1.43658e-20)
(0.107898 1.38906 -4.89779e-21)
(0.0399904 1.48081 2.16884e-20)
(0.0436517 1.47455 -1.67067e-20)
(0.0679924 1.38908 -1.11134e-20)
(0.0608041 1.39005 4.73111e-20)
(0.0545091 1.36747 7.03411e-21)
(0.0454135 1.39113 4.09686e-21)
(0.107209 2.36058 -1.49256e-19)
(0.0960064 2.4094 0)
(0.168851 2.03436 1.08699e-19)
(0.114814 1.70272 3.99044e-20)
(0.234507 2.03215 -8.95804e-20)
(0.199461 2.42299 0)
(0.262125 2.37292 -6.05312e-19)
(0.302198 2.37064 4.27627e-19)
(0.22844 1.99187 -2.49709e-19)
(0.154657 2.15072 1.69125e-19)
(0.141532 2.25746 0)
(0.018032 1.8778 9.17319e-21)
(0.000660737 2.38475 -2.96861e-20)
(0.00585071 2.14211 0)
(0.011322 2.44893 -1.36531e-20)
(0.0290344 2.29164 7.22758e-21)
(0.0170885 1.42801 -7.8997e-21)
(0.0136987 1.40964 1.3239e-19)
(0.0129756 1.41737 -4.38198e-20)
(0.0224845 1.42311 -3.67259e-20)
(0.0265617 1.45211 0)
(0.00862612 1.39989 0)
(-0.000517248 1.30413 -5.44339e-20)
(0.00417289 1.39223 1.56058e-20)
(0.00903843 1.39121 0)
(0.00744167 1.29638 -4.12468e-20)
(0.0167264 1.21173 8.32847e-20)
(1.04085 0.0121629 0)
(1.04709 0.00843138 -6.77769e-20)
(1.0389 0.0227027 -4.88915e-19)
(1.04867 0.0213712 0)
(1.05247 0.0211558 0)
(1.03652 0.0123957 -6.79691e-21)
(1.03116 0.0122669 7.86074e-19)
(1.03171 0.0173137 9.52575e-19)
(1.02566 0.0212666 0)
(1.02257 0.0217145 0)
(1.03533 0.0262541 4.87692e-19)
(1.02604 0.0280633 0)
(1.02385 0.0279316 0)
(-0.0177524 2.02244 0)
(-0.000235837 1.65878 -4.46012e-21)
(-0.00445428 1.76388 -3.08623e-20)
(-0.00294888 1.39902 0)
(-0.00713434 1.56298 -2.1151e-20)
(-0.0103573 1.47523 1.29295e-20)
(-0.0079066 1.41452 0)
(0.388341 1.63894 0)
(0.37503 1.30866 -7.34912e-20)
(0.300628 1.33991 0)
(0.426885 1.30755 8.85694e-21)
(0.477711 1.47176 0)
(0.458051 1.41618 2.43407e-20)
(1.03623 2.67275 -1.54081e-20)
(0.968476 2.40114 -9.16157e-19)
(0.921835 2.19013 1.02655e-18)
(0.852159 2.37014 2.42378e-19)
(0.847566 2.48194 0)
(0.917254 2.47801 0)
(0.931528 2.36622 0)
(0.910457 2.35581 -9.46429e-19)
(0.686271 2.44527 -3.95281e-19)
(0.799532 2.43468 -9.79373e-20)
(0.80981 2.4088 7.43783e-20)
(0.69539 2.38867 0)
(0.800662 2.38398 0)
(0.758725 2.39758 -3.69003e-19)
(0.767092 2.4717 0)
(0.635136 1.09423 0)
(0.479812 0.894901 -5.17553e-19)
(0.570749 0.941378 -3.27224e-20)
(0.518535 1.02979 0)
(0.519038 0.971421 7.74567e-19)
(0.804435 0.886715 -1.29364e-19)
(0.812289 1.02238 0)
(0.787642 0.988924 1.8437e-19)
(0.672256 1.03439 0)
(0.673328 0.935174 0)
(1.16285 2.74963 -2.31094e-19)
(1.14027 2.81298 -9.83971e-20)
(0.928024 2.32604 1.02749e-19)
(0.895873 2.30571 -8.39806e-20)
(1.12855 2.72259 0)
(1.08249 2.69195 1.01024e-19)
(1.08831 2.47597 -3.14278e-19)
(0.982955 2.22948 -3.02619e-20)
(0.491054 1.32601 0)
(0.507187 1.05749 -1.24406e-19)
(0.578762 1.16756 0)
(0.850613 0.25108 0)
(0.75669 0.200652 0)
(0.662674 0.155302 0)
(0.843094 0.252207 -6.31918e-19)
(0.726566 0.245911 3.74041e-19)
(0.921667 0.0912337 -4.11893e-19)
(0.92466 0.133284 0)
(0.912616 0.142025 1.77953e-19)
(0.848819 0.118549 7.11481e-19)
(0.813121 0.079532 -4.45923e-19)
(1.15389 3.34635 -7.1505e-19)
(1.20319 3.26592 0)
(1.15142 3.3755 -1.48512e-18)
(0.640036 3.53723 1.25935e-18)
(0.860711 3.10635 6.96768e-20)
(0.523686 0.790139 6.07326e-19)
(0.422328 0.787709 0)
(0.302156 0.361487 -1.48032e-19)
(0.478942 0.646268 8.5535e-19)
(0.569824 0.340859 -1.9229e-19)
(0.519008 0.459842 2.2909e-19)
(0.677399 0.512338 4.8552e-19)
(0.720512 0.554409 0)
(0.669553 0.569841 0)
(0.636861 0.524003 0)
(1.01196 0.618163 8.70662e-20)
(0.926131 0.559464 -5.09618e-19)
(0.95189 0.590629 3.83383e-19)
(0.981102 0.530839 -3.94979e-19)
(1.08953 0.497986 0)
(1.09814 0.589516 -9.58168e-20)
(0.858022 0.417557 -8.27746e-19)
(0.855615 0.405493 -1.02708e-18)
(0.788417 0.399855 6.29302e-19)
(0.797339 0.388369 -6.39911e-19)
(0.844149 0.343973 -5.19179e-19)
(0.790897 0.340505 6.34681e-19)
(1.02674 0.00620355 -4.93759e-19)
(1.02645 0.0064191 1.004e-18)
(1.02952 0.000308882 6.27883e-19)
(1.03375 0.00122221 -7.56249e-19)
(1.0339 0.00935894 0)
(1.03017 0.0100513 -1.23087e-18)
(0.0635497 1.63825 1.86911e-20)
(0.0519195 1.59041 0)
(0.0911389 1.68781 1.24257e-19)
(0.0983998 1.66898 -1.09933e-19)
(0.0916953 1.54964 2.56906e-20)
(0.0908374 1.55133 0)
(0.0125524 1.69279 0)
(-0.00425305 1.50698 9.16184e-21)
(-0.00250321 1.45293 -8.24018e-21)
(-0.00828267 1.56016 5.35912e-21)
(0.00257049 1.88568 1.33569e-20)
(-0.00971265 1.93882 -2.79647e-21)
(0.49669 1.35433 -2.78259e-19)
(0.490386 1.35419 3.05842e-19)
(0.454506 1.30301 -3.24407e-20)
(0.436861 1.28206 7.82261e-21)
(0.642161 1.30994 0)
(0.556839 1.40041 1.0511e-19)
(0.572919 1.40732 -1.0233e-19)
(0.46853 1.29469 3.16563e-20)
(0.523829 1.24245 0)
(0.57525 1.20478 0)
(0.653286 2.405 5.80653e-19)
(0.668946 2.44694 1.25909e-18)
(0.71332 2.45774 -8.67627e-19)
(0.609388 2.43173 -2.01789e-19)
(0.559728 2.52142 2.83798e-19)
(0.509022 2.4964 -7.56727e-19)
(0.978072 2.37281 -5.74554e-19)
(1.01192 2.38484 0)
(0.925717 2.1682 -6.59253e-19)
(1.0536 2.67095 0)
(1.05591 2.65752 0)
(0.595528 2.2534 -1.32542e-19)
(1.03504 3.15185 1.23916e-19)
(0.906202 3.02238 -2.64858e-20)
(0.260314 0.833677 0)
(0.284751 0.674359 -3.17761e-19)
(0.45642 0.635188 -3.20554e-19)
(0.375783 1.99708 0)
(0.460589 2.77748 -4.85045e-20)
(0.413585 2.53991 0)
(0.72251 0.667869 -8.3483e-19)
(0.807346 0.688768 1.11415e-18)
(0.82668 0.629059 -1.10066e-18)
(0.699104 0.631532 -1.06754e-19)
(0.753896 0.590687 -4.36792e-19)
(0.999434 2.74993 -9.42472e-20)
(1.04119 2.81227 -1.68681e-19)
(0.629576 2.11466 7.09797e-19)
(0.58133 1.68363 -5.05364e-19)
(0.692141 1.88494 -4.11039e-19)
(0.985826 2.43402 -1.12924e-19)
(0.993198 2.427 2.99284e-19)
(0.646743 1.81709 2.8564e-20)
(0.438481 1.30486 1.45719e-19)
)
;

boundaryField
{
    wall-4
    {
        type            noSlip;
    }
    velocity-inlet-5
    {
        type            fixedValue;
        value           uniform (1 0 0);
    }
    velocity-inlet-6
    {
        type            fixedValue;
        value           uniform (0 3 0);
    }
    pressure-outlet-7
    {
        type            zeroGradient;
    }
    wall-8
    {
        type            noSlip;
    }
    frontAndBackPlanes
    {
        type            empty;
    }
}


// ************************************************************************* //
