/*--------------------------------*- C++ -*----------------------------------*\
| =========                 |                                                 |
| \\      /  F ield         | OpenFOAM: The Open Source CFD Toolbox           |
|  \\    /   O peration     | Version:  2206                                  |
|   \\  /    A nd           | Website:  www.openfoam.com                      |
|    \\/     M anipulation  |                                                 |
\*---------------------------------------------------------------------------*/
FoamFile
{
    version     2.0;
    format      ascii;
    arch        "LSB;label=32;scalar=64";
    class       volScalarField;
    location    "79";
    object      p;
}
// * * * * * * * * * * * * * * * * * * * * * * * * * * * * * * * * * * * * * //

dimensions      [0 2 -2 0 0 0 0];

internalField   nonuniform List<scalar> 
918
(
0.557289
1.17503
0.00124502
0.556755
-0.0126054
1.14199
-0.513509
0.651099
0.537498
-0.107357
-0.0580619
0.539641
1.00287
0.768282
-1.12439
-0.0128111
0.651657
-0.382819
0.536625
-0.0665714
0.677334
0.54403
0.547053
0.53763
0.596962
0.74029
0.884083
0.0282824
0.0113209
0.00664248
-0.0121107
-0.0389045
-0.0332794
1.02564
1.07672
1.09943
0.505208
0.333836
-0.379246
-0.452961
-0.438902
-0.540673
0.652676
0.654265
-0.217299
0.652424
0.651085
0.5245
0.536868
0.537782
0.538791
0.537782
0.539159
0.402089
-0.108384
-0.139753
-0.0883634
-0.0812582
0.0490016
-0.0575347
-0.0584345
-0.0570498
-0.0579945
0.454256
0.534113
0.530723
0.543892
0.553134
1.11458
1.08652
1.11265
1.02633
1.04279
0.980863
0.953446
0.789005
0.811066
0.753538
0.738895
-1.55395
-2.50118
-0.536732
-0.287344
-0.0106337
-0.0110937
-0.00576502
0.64901
0.650112
0.651485
0.653305
1.07819
-0.380066
-0.481823
0.53677
0.53558
0.543889
0.544592
0.540613
0.539702
-0.0582912
-0.0559139
-0.0551466
-0.0615807
-0.0591912
0.654189
0.658982
0.538157
0.535157
0.560692
0.581342
0.571096
0.276883
0.607905
0.62397
0.575524
0.733845
0.72768
0.736653
0.857824
0.821406
0.920949
0.944246
0.0183052
-0.000220646
-0.0171106
-0.0204829
-0.0195852
0.501033
0.493566
0.521407
0.508649
0.511161
0.250971
0.118107
0.418534
0.443196
-0.298998
-0.367013
-0.431224
-0.461506
-0.568894
0.613469
0.65454
0.651768
-0.226506
-0.154802
-0.289187
-0.0815629
-0.144844
0.514746
0.521774
0.516764
0.53234
0.526801
0.528767
0.541145
0.538213
0.539774
0.464199
0.587678
0.328332
0.292678
-0.243825
-0.155177
-0.243085
-0.0712018
-0.0685426
0.0632332
0.0890289
0.0356853
0.0238279
-0.0643321
-0.0598106
-0.0620957
-0.0572581
-0.0571081
0.446964
0.435683
0.466976
0.474555
0.52068
0.522107
0.526613
0.524594
0.904317
0.926785
0.934181
0.907827
-3.48642
-6.26031
0.0356723
0.171322
-0.00668136
-0.00948703
0.00200963
-0.0061565
-0.000112868
-0.00216209
-0.0113842
-0.0125864
-0.00714361
-0.00600995
0.643721
0.644478
1.0009
1.00857
0.975922
0.928983
0.525037
0.52708
0.532557
0.52845
-0.0565732
-0.0555746
-0.0554922
0.652183
0.653803
0.653284
0.238153
0.147897
0.328203
0.357534
0.637146
0.626251
0.635419
0.636596
0.672158
0.951677
0.969798
0.968062
0.976244
1.02022
1.03658
1.002
0.480415
0.490433
0.485361
0.524244
0.522154
0.52299
0.519471
0.520452
0.518654
-0.0318823
-0.410656
0.490379
0.506695
0.492812
0.494573
0.69362
0.772289
0.65269
0.653332
0.653388
-0.0116492
-0.0701979
0.247707
0.213364
0.386194
0.422799
0.401649
0.875614
0.835544
0.885795
0.859187
0.820332
0.846982
-0.362308
-1.85707
-0.978819
0.518774
0.334584
0.421435
0.00558535
-0.0110709
-0.00654904
1.0013
1.07293
0.64347
0.818801
0.821021
0.705929
0.735781
0.795429
0.720804
0.756088
0.790064
0.768548
0.569201
0.503529
0.520067
0.841163
0.896673
0.117227
0.0547269
0.0110078
0.108165
0.165906
0.13972
1.03273
0.950049
1.0199
0.53492
0.535645
-0.00615518
-0.0191018
0.539908
0.539965
-0.0134145
-0.00281198
0.403958
-0.832109
0.0948417
0.528518
0.518353
0.535516
-0.0932764
0.353488
-0.0583866
0.0445553
-0.0125505
0.529658
0.465422
0.424406
-0.00123075
-0.0221594
-0.0570488
-0.213749
0.53259
0.530894
0.534983
0.535919
0.536603
-0.0202539
-0.0160787
-0.0109461
-0.0528856
-0.044096
-0.0579856
0.499372
0.518652
-0.172198
0.535133
0.537271
0.537087
0.530371
0.535989
0.534247
-0.0126109
-0.0170853
-0.019617
0.217786
0.351035
0.641157
0.725568
0.614905
0.391703
0.157872
0.54577
0.608029
0.515012
0.666938
0.648921
0.648131
0.160271
0.0095757
0.16965
0.111553
0.526386
0.525136
0.516603
0.513556
0.530384
0.528499
0.533059
0.530091
0.533041
0.534417
-0.0500048
-0.0761352
-0.0855933
-0.152308
0.308246
0.569206
0.253067
0.282329
0.13907
-0.0526611
-0.0541434
-0.0556248
-0.0616533
-0.00225881
-0.0283958
0.0390676
0.0391064
0.0106758
-0.0150563
-0.012667
-0.0238
-0.0176175
0.522893
0.522988
0.527752
0.536402
0.475116
0.478899
0.44362
0.464455
0.44963
0.388056
0.423685
0.398771
-0.0071029
0.000911702
-0.00376512
-0.0205065
-0.0172563
-0.0363018
-0.0332801
-0.0292662
-0.0247497
-0.0315009
-0.0511051
-0.0556407
-0.171657
-0.28767
0.987519
0.907277
0.138238
0.521729
0.528194
0.52495
0.529894
0.533023
0.533815
0.531516
0.528061
0.518934
0.520572
0.517106
0.518066
-0.10304
-0.245299
-0.073569
-0.149147
0.146148
0.628319
0.362928
0.297788
0.293313
0.52308
0.911685
0.693454
0.658102
0.648183
-0.34578
0.0412897
-0.282831
0.330713
0.159571
0.643016
0.690267
0.709929
0.659477
0.613457
-0.0988721
0.555796
-0.0774228
-0.0245172
0.177913
0.0521088
0.647048
0.637725
0.645141
0.641009
0.651222
0.640605
0.620873
0.622452
0.639054
0.64609
0.479776
0.248417
0.198658
0.160201
0.643419
0.513209
0.561673
0.488051
0.521688
0.524246
0.522905
0.50421
0.511808
0.507323
0.513882
0.517489
0.526103
0.526592
0.521828
0.52396
-0.056467
-0.0619673
-0.0267614
-0.136059
-0.128857
-0.191023
-0.0605889
0.0746731
0.0360875
0.23669
0.339994
0.051582
-0.0575502
-0.0304439
0.0126047
0.179581
0.208261
0.0724156
0.159422
0.151673
0.132278
0.235371
0.238325
-0.0331083
-0.0342833
-0.0389422
-0.0424197
0.0156699
0.0872437
0.0965898
-0.0120837
-0.0169298
-0.0518491
-0.0545175
-0.0247153
-0.0296507
-0.0251385
0.0025735
-0.0545016
-0.0225831
-0.00895655
-0.0106139
-0.00979809
-0.0152658
0.517913
0.519571
0.519882
0.528684
0.540757
0.555496
0.52128
0.497378
0.48814
0.491147
0.464067
0.474354
0.47025
0.483805
0.505122
0.513552
0.511917
0.51471
0.497132
0.498839
0.485337
0.489008
0.464151
0.444667
0.43261
-0.0444577
-0.0061418
-0.0144462
-0.0397695
-0.0101954
-0.0220575
-0.0146687
0.00501828
-0.012196
-0.012856
-0.0232858
-0.0297835
-0.02908
-0.0734814
0.0136491
-0.185912
-0.220736
-0.294493
0.889895
1.01415
0.808555
0.581358
0.602441
0.845885
0.929865
0.541345
0.734158
0.757108
0.58811
0.855293
0.526585
0.526176
0.523776
0.523253
0.524477
-0.00716152
0.0999622
0.0963429
0.161124
0.277864
0.389066
0.321368
0.195859
0.325471
0.327781
0.620907
0.632971
0.588974
0.613049
0.613818
0.424722
0.500394
0.552048
0.513152
0.565836
0.587679
0.541077
0.574693
0.523454
0.47855
0.474648
0.424372
0.443909
0.419401
0.402569
0.517005
0.493618
0.504628
0.494744
0.516789
0.543402
0.540424
0.562833
0.577828
0.4977
0.452786
0.462071
0.492301
0.453924
0.469444
0.485187
0.234421
0.13701
0.219782
-0.0642821
0.00456648
-0.00731462
-0.0563095
-0.00403111
0.279901
-0.409773
-0.387041
-1.01261
0.50596
0.950792
0.572087
0.551482
0.652316
0.641211
0.647153
0.663711
0.657309
0.632171
0.640161
0.645235
0.589848
0.610689
0.627547
0.623779
0.523521
0.378947
0.379359
0.326048
0.196336
0.236714
0.432032
0.356453
0.281757
0.281846
0.455846
0.341913
0.412643
0.445124
0.376138
0.330826
0.534308
0.600687
0.593817
0.567465
0.476483
0.488086
0.512917
0.54638
0.56961
0.603766
0.513314
0.519274
0.520506
0.517975
0.515233
0.518337
0.518602
0.521208
0.521801
0.524836
0.523916
-0.053464
-0.0401565
-0.0504594
-0.0616385
-0.0185981
-0.0213801
0.021894
0.00937303
-0.0174115
-0.0129583
-0.0338254
-0.037882
-0.0349999
-0.0277039
0.101762
0.114291
0.0988025
0.0590614
0.2505
0.379926
0.454434
0.329251
0.223856
0.247761
0.266198
-0.0148227
0.0102125
-0.00242422
0.0373509
0.0297725
-0.0429506
-0.0471058
-0.0434015
-0.0348087
-0.0265759
-0.0448478
-0.0517999
-0.0419972
-0.0468272
-0.0511902
-0.0557899
0.49966
0.493146
0.494725
0.488694
0.487406
0.501601
0.505912
0.507879
0.51335
0.515665
0.505734
0.511124
0.51508
-0.0156673
-0.0386223
-0.041757
-0.0356994
-0.0359653
-0.0334806
-0.0352903
0.124012
0.0554212
0.0589856
0.0115773
-0.121573
-0.0633526
0.492857
0.491519
0.480206
0.721773
0.570942
0.492058
0.589218
0.694918
0.277106
0.473214
0.308801
0.888323
0.785482
0.931635
0.542321
0.247195
0.413349
0.454033
0.268611
0.34548
0.323295
0.212601
0.243113
0.282751
0.381051
0.267078
0.244432
0.000611824
0.191633
0.302792
0.284768
0.408586
0.468812
0.268617
0.188085
0.143006
0.605372
0.624772
0.638186
0.610369
0.632907
0.581637
0.573659
0.589035
0.597129
0.590885
-0.741099
-0.447231
-1.39483
-0.719956
-0.263165
0.536555
0.510863
0.770275
0.643541
0.672216
0.656483
0.617674
0.588576
0.614717
0.635194
0.337463
0.448181
0.42309
0.429584
0.332453
0.262157
0.56123
0.559085
0.591817
0.615696
0.587762
0.618276
0.511116
0.510836
0.510302
0.506544
0.504805
0.507146
0.0571751
0.0244664
0.0659076
0.0483613
0.0261035
0.01427
-0.0169328
-0.0272988
-0.0335529
-0.0320964
-0.0174456
-0.0138493
0.173442
0.11013
0.030516
0.0591469
-0.0019493
-0.070476
-0.0900754
0.0163588
0.112646
0.102824
0.405777
0.65462
0.474753
0.642191
0.485188
0.540888
0.468412
0.45946
0.484052
0.380596
0.461103
0.256031
-0.253049
-0.162522
0.796764
0.806515
0.581458
0.408896
0.175676
0.350648
0.538722
0.467671
0.502858
0.571681
0.558106
0.0340461
0.0897476
0.382391
0.609114
0.243169
0.234018
0.227326
0.413583
0.330662
)
;

boundaryField
{
    wall-4
    {
        type            zeroGradient;
    }
    velocity-inlet-5
    {
        type            zeroGradient;
    }
    velocity-inlet-6
    {
        type            zeroGradient;
    }
    pressure-outlet-7
    {
        type            fixedValue;
        value           uniform 0;
    }
    wall-8
    {
        type            zeroGradient;
    }
    frontAndBackPlanes
    {
        type            empty;
    }
}


// ************************************************************************* //
