/*--------------------------------*- C++ -*----------------------------------*\
| =========                 |                                                 |
| \\      /  F ield         | OpenFOAM: The Open Source CFD Toolbox           |
|  \\    /   O peration     | Version:  2206                                  |
|   \\  /    A nd           | Website:  www.openfoam.com                      |
|    \\/     M anipulation  |                                                 |
\*---------------------------------------------------------------------------*/
FoamFile
{
    version     2.0;
    format      ascii;
    arch        "LSB;label=32;scalar=64";
    class       surfaceScalarField;
    location    "79";
    object      phi;
}
// * * * * * * * * * * * * * * * * * * * * * * * * * * * * * * * * * * * * * //

dimensions      [0 3 -1 0 0 0 0];

oriented        oriented;

internalField   nonuniform List<scalar> 
1300
(
3.75095
5.62643
-3.30969
3.75095
-7.75897
5.62643
-4.40039
4.40039
-0.327512
0.327512
1.87639
1.87457
-2.68963
2.68963
-2.03004
2.03004
-2.5217
2.5217
-5.24638
5.24638
-5.0685
5.0685
4.65177
-4.65177
-6.31384
6.31384
-0.938081
0.938081
-3.68712
3.68712
3.16959
-3.16959
-2.00283
2.00283
0.0822688
-0.0822688
-0.553469
4.30442
3.19748
3.19748
-2.00939
2.00939
-4.86937
4.86937
6.21794
-6.21794
5.29261
-5.29261
-1.98292
-2.47754
1.80662
-11.4773
-5.95235
-5.95235
-8.44038
8.44038
-2.81395
2.81248
2.94642
-2.94642
-1.76965
1.76965
-4.36426
-0.0361327
-4.36426
4.36918
0.0312113
4.36918
-0.4406
0.113088
-0.4406
4.00946
-4.00946
0.222528
0.104984
0.222528
3.06539
-3.06539
-1.87712
3.75351
1.87383
-1.8719
6.17632
-1.87905
3.75362
-6.01469
6.01469
-2.93438
0.244755
-2.93438
2.4786
0.211026
2.4786
-6.84972
6.84972
-2.08113
0.0510861
-2.08113
1.98982
0.0402262
1.98982
2.88199
-2.88199
-2.62794
0.106242
-2.62794
2.39318
0.128517
2.39318
0.353519
5.27291
-5.97995
8.79242
-5.27291
0.0265322
5.20833
0.038052
5.20833
-5.10589
0.0373946
-5.10589
5.0138
0.0546957
5.0138
4.73594
-0.0841635
4.73594
-4.7705
0.118727
-4.7705
-3.36927
-4.04957
-6.4636
0.149761
-6.4636
-1.02915
0.0910662
-1.02915
0.8242
0.113881
0.8242
-3.68784
3.68784
-4.10857
0.421453
-4.10857
3.12396
0.045626
3.12396
1.86849
1.88247
5.61944
-5.61944
2.44985
-1.96104
-0.0417958
-1.96104
-2.08377
-3.20884
2.08377
-0.0809388
-0.139792
0.222061
-0.139792
3.15945
0.038034
3.15945
2.23659
0.156598
-2.23659
0.227195
3.27976
-3.27976
1.33627
0.673119
1.33627
-5.56476
5.56476
4.95652
0.0572754
-4.95652
0.0871536
6.15606
0.0618734
6.15606
-6.19952
-0.0184132
-6.19952
2.52661
-5.00415
-2.63705
6.13295
0.180893
-6.13295
0.180604
2.91839
0.0280277
2.91839
-2.91861
2.91861
-2.98484
0.038423
-2.98484
-2.16813
0.398483
-2.16813
1.47154
0.298109
1.47154
-4.2674
-0.096861
-4.2674
-4.25809
0.149517
4.25809
0.111096
1.13124
-1.13124
-0.573666
0.133066
-0.573666
-4.13342
-0.133979
4.13342
-0.12396
-3.89786
-0.111598
-3.89786
-3.02461
0.0397735
3.02461
0.0407805
3.11291
0.0465429
-3.11291
0.0475146
-1.87081
3.75328
-1.88014
3.75397
-5.6353
-0.379391
-5.6353
6.32547
-0.310778
6.32547
3.32805
0.359066
-3.32805
0.393668
2.30938
0.169225
2.30938
-6.81173
-0.0379848
-6.81173
6.83492
0.0147947
6.83492
2.17789
0.131485
-2.17789
0.0967618
1.96009
0.0297237
1.96009
2.90241
-0.0204209
2.90241
-2.8759
-0.00608283
-2.8759
2.79096
-2.79096
2.71582
0.0751461
-2.71582
0.087873
-11.1329
11.1145
-0.035077
-11.0979
5.17325
5.17325
4.16175
0.574185
4.16175
-4.98924
0.218742
-4.98924
2.69131
-5.32837
3.09195
-6.46122
4.6576
-16.1349
4.29019
-8.33976
6.70216
-6.70216
6.59166
0.110502
-6.59166
0.12805
-1.14814
0.118997
-1.14814
-3.08653
-0.601302
-3.08653
4.32914
-0.6413
4.32914
-3.02807
3.02807
-3.07741
0.0493398
3.07741
0.0465519
1.94705
0.0130445
-1.94705
-0.0139873
0.161907
0.0606213
-0.161907
0.0221148
3.49454
-0.214782
3.49454
-3.08056
-0.1992
-3.08056
-1.24677
0.0986301
1.24677
0.0894979
-5.8137
0.248939
-5.8137
-11.1909
0.0929836
-11.1528
-6.10654
-6.10654
2.33385
11.1263
-2.89377
0.0178655
2.89377
0.02462
2.97487
0.0532041
-2.97487
0.0562523
-2.85785
0.0668825
2.85785
0.0607669
-2.54261
0.374481
-2.54261
-1.07144
1.07144
-1.23581
0.164366
1.23581
0.235734
1.40434
-0.273094
1.40434
0.70492
0.11928
-0.70492
0.131255
-3.79622
-0.101647
-3.79622
6.56067
-0.235208
6.56067
-2.96488
-0.115674
2.96488
-0.0624774
-0.0333597
11.1479
-5.13989
0.034
5.13989
-11.2098
11.2438
-3.21262
0.670007
3.21262
0.949129
5.28388
0.280882
-5.28388
0.294634
6.78565
0.049274
-6.78565
0.0834918
-2.5942
-0.492334
-2.5942
-5.05394
-0.581355
5.05394
-0.724806
-11.4742
-0.204006
11.6782
-11.4195
6.0177
0.138359
-6.0177
11.3821
-1.03064
-0.100605
1.03064
0.0408024
1.73224
-0.327899
1.73224
3.6926
-0.19806
-3.6926
-0.103618
-6.71488
-0.0968554
6.71488
-0.154203
-2.14931
-0.44489
2.14931
-0.417072
-4.26713
4.30516
1.90919
-2.38131
-2.62284
-5.59015
1.85184
1.90144
4.30169
-10.1268
-6.00813
-9.94616
7.26119
-6.96656
-9.23773
9.15357
7.90643
-8.01803
-5.78474
5.8313
6.48297
-6.44219
1.87883
1.87467
8.02608
-7.78132
-15.5858
15.2064
7.57415
-7.52307
15.737
-15.775
-17.8143
17.8635
-5.70828
5.81452
-6.74071
6.73463
-6.97703
6.91456
-2.83483
-3.62639
13.0855
-12.9358
8.606
-8.6478
-8.62542
9.04688
3.3826
0.922559
3.42915
-1.88213
3.76096
-1.87149
3.78068
2.7375
-5.57233
2.59086
-5.2137
4.37695
4.22905
-4.29601
-1.29414
-5.92495
5.95298
-5.81329
5.87406
9.14979
-9.18593
-1.88518
3.75985
-1.8688
3.77024
-3.42501
-2.35974
3.37938
0.922316
8.0538
5.03175
-8.23469
-1.71147
-8.04751
7.84945
-8.23448
8.03528
-0.432612
5.81853
-5.38592
4.43676
-1.56377
7.3823
5.69742
5.91616
5.86623
-5.58534
1.10033
-6.48625
-6.39909
-2.22183
2.3549
2.13414
-2.02916
6.155
1.75142
6.03104
-5.76861
-2.24941
-5.87026
3.82052
2.01078
3.86986
4.07853
2.40444
4.11831
3.03041
-3.03599
0.00558251
-3.05667
6.08708
0.723858
-5.41641
-4.49409
4.97874
3.04734
5.18977
-5.55842
-2.2229
-5.16475
-9.52829
-6.0575
-10.1096
10.0711
5.13532
9.7603
-11.9404
11.7862
4.81801
2.75614
4.85824
-4.95852
-2.56455
-4.86175
11.633
-2.6396
-8.99337
-10.3008
-7.51345
10.286
5.45098
10.9409
6.92266
11.0244
4.41647
7.2165
-9.86745
2.354
-3.8685
-1.83979
-3.78062
3.67612
2.1384
3.80464
-4.21763
-2.52308
-4.19976
-4.29594
-2.68109
4.31636
2.41827
-4.41818
-3.8163
4.53385
2.3807
4.03279
-10.0409
4.30697
-7.93336
-9.17651
-3.75927
-9.04846
3.54004
2.60807
-6.14811
-2.0323
8.54013
-4.31108
7.24599
-5.19505
-3.45275
-5.20903
-6.88964
-1.73578
-6.74012
-8.86916
8.37683
-9.16509
8.52379
12.4946
-5.63554
-6.8591
-3.96847
-2.47372
3.92096
-0.491808
-3.71046
3.71604
0.0505094
3.83119
4.75375
4.26194
-3.88447
-1.92882
-3.82822
3.82422
2.04984
3.8911
6.84575
2.30405
6.87696
-6.62252
-2.5634
-6.71938
9.0297
-8.63122
2.83135
-2.73272
5.40191
2.63336
-5.18713
-2.86038
6.20861
-3.22001
-2.9886
-12.1997
10.525
1.67464
-4.81737
-0.380611
-0.46288
-5.48654
-3.75119
5.36781
0.548354
11.0734
7.32219
-5.51272
5.76166
6.16551
6.22278
-0.176312
5.79996
-5.12996
5.25325
-2.6167
-2.63655
5.48366
-5.61764
-1.23572
-5.53503
4.29931
0.413401
1.43912
-1.21706
-1.76083
-0.461001
-1.62958
1.23069
0.903456
1.29131
0.96066
1.39424
-2.95519
0.521834
2.43336
-1.99453
-1.50732
-3.8445
-1.14367
4.98817
5.74478
2.10466
-5.64117
-0.229093
2.51149
-2.39761
-0.797883
-3.04662
2.24779
-3.04567
-3.66647
-2.09344
5.75991
-3.36962
-0.458593
3.31642
0.553435
-3.82727
-2.09768
3.78885
0.329455
-3.12874
6.19138
-3.06264
-5.05756
2.52749
3.55959
4.53827
-4.78951
2.44778
2.34173
-1.22992
4.24616
0.943601
4.41539
-6.94594
4.72304
5.80819
3.23868
-6.16726
1.00251
-5.94343
8.55032
-7.3768
-1.17352
4.16801
4.38231
7.05247
5.44216
-5.6668
12.7193
-1.20703
-6.16977
7.15046
-3.91178
4.85321
-8.76499
-10.2954
4.1256
-9.12202
10.8958
-1.77375
-3.6184
-8.32201
12.7404
-1.20308
-11.5373
8.55722
-4.28973
-4.39974
8.68946
-6.92933
6.96429
-1.99323
-4.97106
-10.0887
-5.6863
10.1855
1.60067
-9.93191
12.2859
-2.71541
4.12914
0.729101
4.15886
3.30574
-5.48896
2.18322
3.62359
-5.61683
2.08029
-7.56925
-6.71649
12.0459
-5.32945
-10.4758
-9.49766
-0.978101
2.53217
9.75374
-9.45483
7.41125
2.04358
3.3002
0.590902
-3.37535
-0.405277
0.234635
4.51486
-4.74949
4.03927
4.19587
3.26517
1.24969
3.84565
2.10733
-3.87027
-0.329497
-4.1644
1.48331
-1.74613
-3.69464
5.17794
-4.06761
0.372974
-2.74386
-3.49718
6.24105
-4.58365
3.03525
3.15613
5.08509
-4.91327
1.41608
-2.39278
-2.52049
2.65153
-4.39766
1.99443
3.18351
4.37513
0.558836
5.86953
6.17641
-8.4776
0.544238
11.2082
-9.49668
2.46186
8.56251
-9.87311
0.375447
-8.67301
0.997197
-5.30828
-5.15091
5.19976
-6.93554
-3.56522
6.21895
0.658003
-6.33005
-0.410075
-6.02875
-2.84042
-6.47364
-3.03982
-6.12528
-8.70662
-1.65025
-7.05637
6.72658
-6.67431
-3.43534
7.39912
1.12468
-7.40358
7.30298
-7.48181
7.15391
0.0954489
3.62059
4.35739
1.88367
-2.39067
4.27434
-5.12278
7.42683
-8.72788
3.60509
4.21096
-6.77436
-4.51692
5.01666
4.01304
5.31477
8.87175
-10.3334
1.46167
-10.6368
11.9698
-1.33306
-16.3913
5.75453
-7.51953
2.4334
0.397952
2.5524
0.542016
2.49812
-3.04013
-2.19071
-2.10121
-2.44222
-3.46504
5.90727
1.08577
-3.53225
2.44648
-3.56762
4.65338
-0.219534
-3.31272
5.2661
-2.76798
5.66405
-3.78715
1.8769
3.44063
5.75494
-2.31431
4.3953
-1.76194
1.93011
-4.24443
-1.53493
-2.95658
5.09498
-3.28447
3.65744
-0.345492
4.00293
-4.04705
0.827035
-0.781881
3.41399
3.64119
4.31636
-3.06668
2.91666
-4.6786
-1.32776
-4.11977
-0.936257
-0.253551
-3.69455
3.9481
5.97006
-6.22361
-5.22889
9.51776
-4.28887
7.68566
-5.37635
-2.30931
-4.24703
-4.38419
3.87255
1.92741
9.61308
0.208641
-5.58499
-4.92131
-3.97219
3.0955
2.15775
-1.72012
3.39476
2.183
-0.743884
0.425215
0.866093
1.77876
-1.35354
0.32885
1.44991
-0.888208
1.69333
0.818157
-1.81261
0.183036
-1.33507
3.58286
1.09829
-2.00174
0.648204
0.972617
-3.58932
5.07301
-2.69554
-2.37747
6.04563
1.1395
-3.83505
4.39552
-3.98212
2.39912
-3.54279
-1.43593
-5.41805
-3.66663
-2.51688
4.96336
-3.39039
5.49505
1.29689
-5.26596
6.56285
-3.72985
1.63641
-3.04629
3.86445
-0.923533
-2.12276
2.90254
2.85738
-3.08523
0.0386105
-0.182691
2.40762
-2.59031
-0.638048
-2.63258
-4.57362
4.90308
-2.10515
4.55293
2.16919
-1.91728
6.47021
1.80865
-3.72593
-3.24891
-3.70751
-1.38419
3.15407
-0.570722
-4.29103
-5.54178
4.15955
0.255843
-7.06081
7.87888
-0.818063
-4.01348
-0.709563
4.87758
-6.08715
0.47032
-4.00686
3.87201
4.81562
5.07146
-11.3171
-0.220195
-6.18182
1.12137
-7.3032
5.50368
-3.5325
7.6581
-10.3115
6.87612
-9.18678
6.48458
-0.818619
6.24005
-4.05682
2.75332
-8.43962
-6.83895
5.55461
-2.79847
6.28371
-3.17558
9.4593
-5.89099
5.34178
4.11752
-1.03353
-4.1755
-5.33819
4.30465
0.00359205
4.16246
4.98035
-2.87302
4.65086
2.26988
-4.66266
-2.12777
-6.49608
1.83342
-3.33995
-1.92127
3.75469
3.16382
3.75472
1.2342
-3.34945
7.19752
-8.17562
-1.86807
-3.28284
5.32489
-1.02024
3.43614
-6.71898
-1.87214
4.78403
-0.77974
-4.00429
0.851511
-4.41673
1.67551
-6.09225
5.26003
-5.6701
2.22172
-9.74125
-5.18186
-5.14106
-2.25797
-5.22384
-7.56058
5.3026
-1.80604
5.49693
-8.49161
7.71187
-3.47821
8.78081
-5.42389
-1.04975
5.84096
1.31296
10.0938
0.225636
-4.74255
-1.92353
3.83636
-1.91283
1.17198
-3.46892
0.367441
2.49411
3.55152
-6.79342
0.0190563
-4.7235
-3.91413
7.92717
5.60364
11.5737
1.24027
9.10646
-1.17928
10.3467
4.13548
4.37122
-2.98196
4.44363
0.966144
4.57124
-0.927881
2.80478
1.62452
1.71558
0.682023
2.30353
1.33765
3.13057
0.0904357
-2.01077
4.61791
-8.5901
-0.967078
-8.01591
1.13766
5.70484
-4.56718
2.92524
-0.767495
1.01241
-0.133754
-1.18816
1.32192
-2.7703
-1.93205
-0.482143
-1.69969
2.3479
1.88316
-1.86576
-0.904547
0.354313
-4.02094
3.18848
-3.14987
-0.292495
6.27035
-2.81677
0.226453
-1.18036
-2.40613
-2.86713
2.68409
6.17625
0.293961
3.11361
5.19704
3.09936
0.22634
3.88115
-5.6549
-3.6881
-5.8751
-0.371415
4.50616
1.76734
7.9864
5.88486
4.86462
-1.85436
-10.03
6.50726
-2.06363
5.1742
-1.16991
-4.92234
5.05105
2.37578
-5.70905
0.0389501
-4.88339
-6.94702
-0.511656
8.22352
-9.58211
8.53236
5.69194
1.36442
-4.40048
-0.740577
4.23612
0.135097
10.4818
-1.12924
-6.70419
7.83343
-4.5756
3.60852
0.732665
2.66209
2.05458
1.28709
-5.4171
-9.98428
-2.07068
-1.51864
-4.44815
0.540024
-2.42319
6.21652
-2.608
3.90721
5.22543
6.23784
-2.12749
-4.09612
6.41637
-2.50916
3.72868
)
;

boundaryField
{
    wall-4
    {
        type            calculated;
        value           uniform 0;
    }
    velocity-inlet-5
    {
        type            calculated;
        value           uniform -3.75095;
    }
    velocity-inlet-6
    {
        type            calculated;
        value           uniform -5.62643;
    }
    pressure-outlet-7
    {
        type            calculated;
        value           nonuniform List<scalar> 8(3.30969 7.75897 4.46046 9.67068 7.41884 5.16366 5.78326 8.94779);
    }
    wall-8
    {
        type            calculated;
        value           uniform 0;
    }
    frontAndBackPlanes
    {
        type            empty;
        value           nonuniform List<scalar> 0();
    }
}


// ************************************************************************* //
