/*--------------------------------*- C++ -*----------------------------------*\
| =========                 |                                                 |
| \\      /  F ield         | OpenFOAM: The Open Source CFD Toolbox           |
|  \\    /   O peration     | Version:  2206                                  |
|   \\  /    A nd           | Website:  www.openfoam.com                      |
|    \\/     M anipulation  |                                                 |
\*---------------------------------------------------------------------------*/
FoamFile
{
    version     2.0;
    format      ascii;
    arch        "LSB;label=32;scalar=64";
    class       volVectorField;
    location    "79";
    object      U;
}
// * * * * * * * * * * * * * * * * * * * * * * * * * * * * * * * * * * * * * //

dimensions      [0 1 -1 0 0 0 0];

internalField   nonuniform List<vector> 
918
(
(0.98516 -0.000508189 0)
(0.00501475 2.96625 0)
(0.00752999 0.885615 0)
(0.979705 0.00214514 0)
(-0.0120915 2.06328 3.76814e-20)
(-0.00704874 2.94879 -2.44395e-18)
(0.82161 1.16692 4.51392e-19)
(0.0975397 0.0668317 -1.45424e-20)
(0.999909 -0.000275341 0)
(0.0662168 0.734749 0)
(0.0164991 0.476532 0)
(0.73156 0.00590803 0)
(0.011128 2.93032 0)
(0.00297876 2.79502 0)
(-0.0178175 3.14713 7.8167e-19)
(-0.0211272 1.91769 1.12368e-20)
(0.286633 0.0581753 1.0183e-18)
(0.189074 1.14417 3.17734e-19)
(0.962713 0.00501659 0)
(0.00693241 0.446052 0)
(-0.0100803 0.0330563 -6.74598e-19)
(1.00197 -0.00497432 0)
(1.00023 -0.00978329 0)
(0.97574 -0.00643866 0)
(0.598333 0.0300272 0)
(0.0135068 2.64254 0)
(-0.014763 2.90995 8.9754e-19)
(0.0113769 0.930434 0)
(-0.0197184 1.1833 0)
(0.0136777 0.914122 0)
(-0.014673 2.58733 0)
(-0.00100662 2.1169 -3.00952e-20)
(-0.0110471 1.89842 0)
(-0.0206 2.98761 -8.77714e-23)
(-0.0166825 3.00529 1.8993e-18)
(0.00210367 3.00017 0)
(0.871466 -0.00965707 0)
(0.401677 0.93119 1.80787e-19)
(0.808196 1.1805 -5.17114e-19)
(0.959141 1.02736 5.62377e-19)
(0.675892 1.27227 -1.05015e-19)
(0.675993 1.24592 6.02403e-19)
(0.125102 0.120577 1.41854e-20)
(0.133411 0.0574029 0)
(1.16569 0.565797 0)
(0.0931513 0.0891318 6.39718e-20)
(0.0621072 0.0451166 -6.63914e-20)
(0.919927 -0.00745827 0)
(1.00027 0.000162728 0)
(0.999909 0.000339444 0)
(1.00363 -0.00775734 0)
(1.00096 -0.000918467 0)
(1.00017 3.81363e-05 0)
(0.0728657 1.82638 -7.68564e-19)
(0.0324191 0.947529 0)
(0.0981943 0.814693 0)
(0.0143858 0.89617 0)
(0.0422181 0.653439 0)
(0.00680626 2.01526 0)
(0.000324313 0.776593 0)
(0.0173014 0.498265 0)
(-0.00617519 0.765069 0)
(0.0084569 0.462679 0)
(0.842151 -0.0156608 0)
(0.842465 0.0269417 0)
(0.758164 0.00228508 0)
(0.801309 0.0286712 0)
(0.700514 0.0178822 0)
(0.0146856 3.00041 9.05611e-19)
(0.0114989 3.00808 0)
(0.00610834 3.00275 0)
(0.0135535 2.99737 1.0271e-23)
(0.00795807 2.95847 -1.34596e-18)
(0.0144861 2.98197 0)
(0.0108603 2.90361 0)
(0.0246433 2.93049 2.04964e-24)
(0.0046087 2.825 0)
(0.0307893 2.91639 0)
(-0.00527516 2.7464 0)
(0.304175 3.53882 0)
(-0.131483 3.61929 0)
(0.137211 3.23689 -7.27411e-19)
(-0.0137348 2.97575 0)
(-0.026182 1.98553 0)
(-0.00680587 2.16943 -1.10828e-20)
(-0.0151071 1.92592 5.89229e-21)
(0.338205 0.138592 -3.53622e-19)
(0.317816 0.0344588 -3.43644e-19)
(0.292844 0.142179 -1.05875e-18)
(0.250278 0.0648481 -6.87734e-19)
(0.229733 0.985366 0)
(0.272684 1.29438 -3.6936e-19)
(0.366907 1.22937 6.16235e-19)
(0.987428 0.00857427 0)
(0.941845 0.00581891 0)
(1.0003 0.000581645 0)
(1.00286 0.00931028 0)
(1.00301 0.00847314 -2.74569e-18)
(0.991906 0.00969528 2.07344e-18)
(-0.0135429 0.765758 0)
(0.00892543 0.450723 0)
(-0.0515732 1.0082 0)
(-0.0301914 0.814858 0)
(0.00295719 0.45227 0)
(-0.0787208 0.0867908 2.09407e-19)
(0.040579 0.0519934 0)
(0.993556 -0.00836848 0)
(0.954474 -0.00653415 0)
(0.744218 0.0293037 0)
(0.678785 0.0276348 0)
(0.660878 0.0247446 0)
(0.972649 -0.00711541 0)
(0.587928 0.0736123 0)
(0.455903 -0.0039166 1.54177e-18)
(-0.037042 2.8624 6.58344e-19)
(0.0412045 2.91031 0)
(0.0536822 2.88598 0)
(-0.00438347 2.70105 0)
(-0.0133958 2.98502 8.49325e-19)
(-0.0178575 2.89485 0)
(-0.0154829 2.98805 -2.6348e-18)
(-0.0132696 2.92514 9.02344e-19)
(-0.0335715 1.35041 0)
(-0.00571015 1.38071 0)
(-0.00703313 2.13465 5.48552e-22)
(-0.00607141 2.09664 0)
(-0.0232616 1.90551 0)
(0.938703 -0.00735765 0)
(0.857661 -0.00997127 0)
(0.862949 0.00511157 0)
(0.94967 -0.00778816 0)
(0.884137 -0.0081995 0)
(0.512864 1.12393 -2.28227e-19)
(0.562065 1.17488 0)
(0.366433 0.876232 3.36742e-20)
(0.309312 0.734961 0)
(0.921506 1.06339 -1.55384e-19)
(1.04089 0.873329 3.17455e-19)
(0.359863 1.3564 0)
(0.528014 1.32774 0)
(0.549836 1.2662 0)
(0.121471 0.185077 -3.02936e-19)
(0.160505 0.114685 0)
(0.172619 0.0926423 1.89215e-19)
(1.01164 0.927577 0)
(1.08619 0.781272 0)
(1.1115 0.723013 -2.53848e-19)
(1.14505 0.625227 0)
(1.19524 0.408471 5.77647e-20)
(0.957807 -0.00868218 0)
(0.962542 -0.0100201 0)
(0.901804 -0.00798943 0)
(0.984212 -0.00913953 0)
(0.974727 -0.00932162 0)
(0.937153 -0.0063751 0)
(1.00019 0.00234115 0)
(1.0009 0.00141711 0)
(0.999909 0.000856155 0)
(0.035508 2.07268 4.26083e-19)
(0.118578 1.76946 0)
(0.018113 2.18622 6.54031e-19)
(0.0459696 1.88057 -5.44484e-19)
(0.106801 1.14933 -2.60191e-19)
(0.0496947 1.02816 0)
(0.142808 0.981108 0)
(0.00843825 0.849028 0)
(0.0215416 0.590576 0)
(-0.000921268 2.24159 -7.73296e-22)
(0.0159423 2.01921 0)
(-0.00174305 2.24395 -2.59228e-20)
(0.00823871 2.02472 3.86365e-20)
(0.0058679 0.817098 0)
(0.00445015 0.792642 0)
(0.0144572 0.540106 0)
(-0.00980249 0.758903 0)
(0.00532232 0.450617 0)
(0.938844 0.00987893 0)
(0.850928 -0.0145904 0)
(0.92791 0.000499927 0)
(0.842894 -0.0128647 0)
(0.8101 -0.000315658 0)
(0.898992 0.0214121 0)
(0.874999 0.0247942 0)
(0.783973 -0.000702501 0)
(0.00569039 3.06487 -8.42899e-21)
(0.0166044 3.05761 0)
(0.0146094 2.96902 0)
(0.00870299 2.87628 0)
(0.918945 3.94996 0)
(1.23185 3.28374 9.2413e-19)
(0.0687568 3.0682 0)
(-0.0297293 2.90138 0)
(-0.00983007 1.40365 0)
(-0.0318603 1.69847 0)
(-0.0184248 1.53565 0)
(-0.0303523 2.54639 -8.85393e-21)
(-0.0143647 2.23915 0)
(-0.0201977 2.38628 0)
(-0.00107522 1.9524 6.64801e-22)
(-0.0033961 2.24013 -1.03828e-20)
(-0.00528575 2.20408 -6.16789e-21)
(-0.00898175 1.93732 0)
(0.389737 0.122384 5.40424e-19)
(0.366502 0.0212867 -5.30306e-19)
(0.258475 1.58536 0)
(0.278125 0.758509 -3.15651e-19)
(0.176883 1.67267 -1.04662e-18)
(0.225729 1.2212 1.04889e-18)
(0.901953 0.00616471 0)
(0.967351 0.0111974 0)
(0.974523 0.0108241 0)
(0.92326 0.00635913 0)
(-0.0123987 0.757375 0)
(-0.0134824 0.758596 0)
(0.00626555 0.443555 0)
(0.0829425 0.0655789 5.88948e-19)
(0.0780186 0.0432503 -6.94632e-19)
(0.038675 0.0369053 0)
(1.10166 0.087073 2.69545e-20)
(1.08367 0.0399985 0)
(1.01496 0.0404021 0)
(0.908512 -0.00508391 0)
(0.443245 0.103813 0)
(0.502883 0.0870754 -2.4642e-18)
(0.410137 0.0147776 9.21791e-19)
(0.00859631 2.98076 7.09503e-19)
(-0.0327578 2.86493 4.59986e-20)
(0.00359464 3.05035 -1.78583e-20)
(0.0201742 3.04325 6.34427e-19)
(-0.0149702 2.99657 2.96456e-20)
(-0.0129444 2.94944 -1.19243e-22)
(-0.0172829 3.01192 -5.48778e-19)
(0.0149282 3.02365 3.98003e-19)
(0.0074505 3.03698 -6.3009e-19)
(0.93423 -0.00114965 0)
(0.93963 -0.00315475 0)
(0.846232 -0.00945736 0)
(0.956412 0.0121375 0)
(0.942377 0.0136756 0)
(0.881481 0.00544064 0)
(0.91616 0.0178195 0)
(0.925363 0.0156118 0)
(0.837603 0.00187108 0)
(0.715196 1.40067 3.84151e-20)
(0.748468 1.50919 0)
(0.180204 0.313092 7.0583e-20)
(0.229801 0.669402 5.67571e-19)
(0.262263 0.719365 -3.31731e-19)
(0.26214 0.51798 6.60376e-19)
(0.347028 0.81299 1.59407e-18)
(0.141181 0.230974 3.76223e-19)
(0.247975 0.144871 7.27454e-19)
(0.205801 0.138192 1.88466e-19)
(0.214558 0.074382 3.56916e-19)
(1.18416 0.466547 6.77091e-20)
(1.19899 0.258437 6.27548e-20)
(0.0103009 2.23484 2.51178e-19)
(0.0402509 1.94871 0)
(0.97169 0.0296295 0)
(0.944008 0.0140884 0)
(0.870011 -0.0177539 0)
(0.0114543 3.07439 0)
(0.0197972 2.94419 1.16031e-18)
(0.0163883 2.95639 0)
(0.00636005 2.85051 -1.1511e-18)
(0.00632276 3.09155 2.81514e-19)
(0.00694325 3.08214 0)
(0.781162 1.81027 -1.57951e-19)
(1.23966 2.4851 4.00515e-19)
(0.763074 1.94948 -1.22441e-18)
(0.0194989 2.98075 -6.09271e-19)
(0.0346358 2.99855 0)
(-0.0349713 2.87611 0)
(-0.00383565 2.2236 -1.30846e-20)
(-0.00295472 2.24456 1.75526e-20)
(0.00160941 1.98709 -7.18235e-21)
(0.278306 1.39493 1.0243e-18)
(0.23984 0.554011 -7.0228e-19)
(0.0637018 1.99761 7.60339e-19)
(0.135057 1.8839 -9.08164e-19)
(0.180086 1.51248 9.52411e-20)
(0.00476626 3.11877 -1.5635e-18)
(0.0106921 3.11934 1.70981e-18)
(-0.0092828 2.98065 7.80979e-19)
(-0.00464136 2.97723 -7.36024e-19)
(-0.0212624 2.88038 -7.95419e-19)
(0.00839109 3.09972 -2.09096e-18)
(0.00167498 3.10505 2.10497e-18)
(0.283203 0.6962 0)
(0.249227 0.684791 -1.18162e-18)
(0.0958897 0.224962 5.24586e-19)
(0.35836 0.940341 1.1139e-18)
(0.196242 0.277189 -1.71745e-18)
(1.18945 0.176176 6.19804e-20)
(1.1993 0.313334 0)
(1.17785 0.123557 -4.88342e-21)
(0.00155815 2.25325 -1.42757e-21)
(0.00495804 2.24477 0)
(0.0245596 1.98461 0)
(0.33994 1.30395 -3.6768e-19)
(0.375279 1.15211 -8.00032e-19)
(0.210969 0.37952 1.42691e-18)
(1.00588 -0.0108232 0)
(1.00767 -0.00763086 5.06486e-19)
(-0.0283524 1.33134 0)
(-0.0408996 1.33149 0)
(1.00221 0.00351674 1.81294e-21)
(1.00367 0.00947497 1.03422e-18)
(-0.0187987 2.5311 1.12218e-20)
(-0.0239602 2.57373 0)
(0.0333946 3.17637 4.00974e-19)
(0.389293 3.48192 0)
(1.17858 0.6674 -5.54934e-20)
(1.01284 0.0131445 -2.12603e-21)
(1.02136 -0.0102682 0)
(1.0017 0.000133992 7.97823e-23)
(0.112928 1.37132 0)
(0.143289 2.56629 0)
(0.0347088 1.31697 0)
(1.59563e-05 2.61766 2.49632e-20)
(-0.0214162 2.57435 2.38004e-22)
(0.99942 0.0312769 2.5605e-21)
(1.06331 0.0048914 0)
(1.09802 0.025509 0)
(-0.0302675 1.74207 0)
(-0.0184045 2.57473 0)
(-0.00876227 1.31984 0)
(0.31143 1.48392 -1.68675e-19)
(1.01131 -0.00960816 0)
(1.0094 -0.0149142 0)
(1.00237 0.000758801 6.47313e-19)
(1.00547 -0.00479472 -7.60789e-19)
(1.00118 -0.000963983 0)
(-0.0174271 1.47108 0)
(-0.00737971 1.38363 0)
(-0.00964552 1.42869 0)
(-0.0127715 1.30673 0)
(-0.023872 1.29356 0)
(-0.0154121 1.27737 0)
(1.03511 -0.00599862 0)
(1.01961 0.0158574 -9.45282e-22)
(0.824168 1.27636 2.62825e-19)
(1.00223 0.000326384 -6.44764e-19)
(1.00406 0.00526624 7.54938e-19)
(1.00118 0.00207894 0)
(1.0127 0.0103869 6.41782e-19)
(1.00797 0.00831902 -7.77621e-19)
(1.00856 0.0146922 0)
(-0.0235066 2.60218 0)
(-0.025609 2.58141 -2.06722e-20)
(-0.022856 2.59571 1.46663e-20)
(1.23958 0.269805 5.77097e-19)
(1.16378 0.0877747 0)
(0.0386092 3.07827 -8.98672e-19)
(0.0648589 2.85678 -6.53377e-20)
(0.137582 3.19153 1.37951e-18)
(0.132519 3.21913 -1.92622e-19)
(0.132342 3.22959 0)
(0.0185579 3.13726 2.31925e-19)
(0.0734006 3.15956 8.86098e-19)
(0.0661843 3.18466 -4.37267e-19)
(0.0213915 3.12976 0)
(0.55676 0.2828 0)
(0.494777 0.303312 0)
(1.15076 0.703626 1.2447e-19)
(1.14385 0.825093 -1.06202e-19)
(1.2064 0.590323 0)
(1.23353 0.52394 0)
(1.016 0.0133956 -1.19626e-18)
(1.01498 0.0142423 1.50185e-18)
(1.02542 -0.00978172 0)
(1.02348 -0.0118313 0)
(1.00642 0.00265875 0)
(1.01041 0.00376093 0)
(1.00458 0.00187298 0)
(1.00978 0.00626815 0)
(1.0078 0.00597053 0)
(1.00451 0.00473276 0)
(0.101266 1.36979 0)
(0.0985389 1.33233 0)
(0.131961 1.40631 0)
(0.150159 1.4108 0)
(0.145353 2.59146 0)
(0.184893 2.66203 -4.21848e-19)
(0.101633 2.6465 0)
(0.0853173 2.6495 1.96654e-19)
(0.0389139 2.6725 -1.44841e-19)
(0.0217224 1.33186 0)
(0.0306632 1.25016 0)
(0.0245527 1.34165 0)
(0.0471594 1.27037 0)
(0.00379861 1.98197 6.83683e-21)
(-0.0202709 2.60221 -2.35875e-20)
(-0.00807369 2.65898 8.87071e-21)
(-0.0179533 2.67829 0)
(-0.023163 2.6077 4.15317e-21)
(-0.023248 2.60265 1.86106e-20)
(0.0125523 1.97996 -1.69102e-21)
(-0.00776045 2.38912 3.16434e-20)
(-0.0132681 2.41226 -1.00605e-20)
(1.01246 0.0396878 1.21084e-18)
(1.00503 0.0209633 -1.50738e-18)
(1.00434 0.0470795 -1.23365e-18)
(0.978465 0.0384454 1.5527e-18)
(1.06452 0.00869438 0)
(1.0496 -0.00812203 0)
(1.09505 0.0356318 0)
(1.07471 0.013269 0)
(1.0725 0.000905561 0)
(1.14105 0.0845515 0)
(1.11257 0.0453642 0)
(1.11669 0.0330618 0)
(-0.0257291 2.42474 1.46057e-21)
(-0.0151102 2.01186 0)
(-0.0174304 2.21208 0)
(-0.0203239 2.59535 -1.27485e-20)
(-0.0175062 2.60557 2.68198e-22)
(0.00176034 1.58339 -3.99117e-20)
(-0.00855908 1.51123 4.06877e-20)
(-0.0184799 1.40091 0)
(-0.0218431 1.40737 0)
(-0.028685 1.40184 0)
(-0.0060161 1.32123 0)
(0.00764145 1.2411 0)
(0.387467 1.50137 2.74786e-19)
(0.430739 1.50197 1.45633e-19)
(0.597123 2.44197 -2.40356e-19)
(0.397574 2.53936 7.0677e-19)
(0.348721 2.04919 7.15874e-20)
(1.0211 -0.00808617 0)
(1.01552 -0.00973075 0)
(1.01493 -0.0154982 0)
(1.0074 -0.0010494 0)
(1.00493 -0.000901698 0)
(1.00779 -0.0046689 0)
(1.00928 -0.00358173 0)
(1.01424 -0.00434296 0)
(1.02033 0.0165434 1.17223e-18)
(1.01749 0.015569 -1.49954e-18)
(1.02065 0.0188137 -1.18195e-18)
(1.01804 0.0172016 1.48073e-18)
(0.787363 1.32682 0)
(0.722725 1.37792 2.48796e-19)
(0.900408 1.22695 1.00291e-19)
(0.946305 1.17271 -1.33469e-19)
(1.1533 2.59646 2.82148e-19)
(0.764428 0.12303 6.00233e-19)
(1.16446 0.110639 0)
(1.21414 0.19658 -4.64606e-19)
(1.20175 0.156729 -1.98133e-20)
(1.00575 0.158916 0)
(0.126379 2.9586 5.24477e-19)
(0.10227 2.86423 -1.14059e-18)
(0.0074723 2.37768 7.59352e-19)
(0.10602 -0.178196 -3.11731e-19)
(0.334493 3.41239 -2.17444e-19)
(0.190177 3.30746 0)
(0.234332 3.34748 2.83191e-19)
(0.23756 3.03079 -1.7597e-18)
(0.330427 3.18868 0)
(0.00689037 3.12076 4.5469e-20)
(0.0172119 3.12947 -5.34277e-19)
(0.0153201 3.1256 7.86367e-19)
(0.0343963 3.13944 0)
(0.0324935 3.15019 0)
(1.20812 2.59346 0)
(0.55009 0.79758 -5.26613e-19)
(1.07018 0.997635 -1.17375e-20)
(1.0056 1.08176 0)
(0.859261 0.976217 -1.08629e-19)
(1.09702 0.898795 2.78158e-20)
(0.289009 0.309453 -8.21691e-19)
(0.642779 0.326244 -1.65819e-20)
(0.524787 0.219918 4.0467e-19)
(0.517139 0.337651 2.89958e-20)
(0.405534 0.267113 -1.16257e-18)
(0.595969 0.32663 0)
(0.711269 0.431539 6.60664e-19)
(0.708125 0.432138 0)
(0.558221 0.342976 0)
(0.465344 0.241893 0)
(0.832661 0.629665 4.05908e-19)
(1.24097 0.29236 -4.85285e-19)
(1.2416 0.431974 0)
(1.24965 0.37201 0)
(0.67194 0.195584 6.21205e-19)
(0.877253 0.5608 -3.69953e-19)
(0.777065 0.53862 6.60856e-19)
(0.963504 0.452025 -7.31249e-19)
(1.01907 0.0150459 8.04188e-19)
(1.01745 0.0144033 -8.08158e-19)
(1.01587 0.0152789 0)
(1.03658 -0.00553901 0)
(1.02997 -0.00832972 -7.5757e-19)
(1.02802 -0.0119277 7.5004e-19)
(1.02491 0.0107508 0)
(1.02336 0.0146051 0)
(1.01141 0.00419435 0)
(1.01417 0.00919861 0)
(1.01516 0.00423323 0)
(1.01427 0.00293269 0)
(0.0722816 1.35329 0)
(0.0796219 1.29867 0)
(0.148505 1.38787 8.84145e-21)
(0.282095 1.48224 8.96503e-20)
(0.177233 1.45296 1.88529e-19)
(0.209732 1.45822 -3.07426e-19)
(0.177325 1.41299 0)
(0.136242 1.59959 -7.02746e-20)
(0.120102 1.57925 0)
(0.344534 1.99815 -1.04097e-19)
(0.341194 2.33534 6.1265e-19)
(0.196363 1.46607 6.12638e-20)
(0.269477 1.39924 2.35468e-20)
(0.202531 1.39219 -1.90127e-20)
(0.279132 1.34215 -1.03707e-19)
(0.24268 1.5785 0)
(0.269566 1.61523 1.12705e-19)
(0.030842 2.2558 -2.81886e-20)
(0.0438981 2.6617 0)
(0.0666547 2.39228 1.34637e-19)
(0.0633801 2.41307 0)
(0.0698275 2.66315 -2.1794e-19)
(0.0494211 2.69191 0)
(0.0287113 1.44917 3.83558e-20)
(0.0361106 1.49626 0)
(0.0338666 1.41412 0)
(0.028447 1.42109 -4.32834e-20)
(0.000786566 2.64526 -1.68825e-20)
(0.0299022 2.69096 1.62155e-19)
(0.0105881 2.71607 1.13847e-21)
(0.00480715 1.83999 -8.41538e-21)
(-0.00177064 1.69422 -5.30414e-21)
(0.0172911 1.30985 0)
(0.0257845 1.2252 0)
(0.0457408 1.59641 -3.09949e-20)
(0.0350987 1.47612 -3.70014e-20)
(0.0386968 1.53898 4.62384e-20)
(0.0407438 1.61995 0)
(-0.0297745 2.26559 1.03212e-19)
(-0.0308304 2.542 -4.29169e-20)
(-0.0169242 2.4402 4.87582e-21)
(-0.00276058 1.85494 1.01957e-20)
(-0.0259693 2.49282 4.15226e-21)
(-0.0205764 2.43738 -6.66331e-21)
(1.01883 0.0221836 -8.03472e-19)
(1.01572 0.0284344 8.06506e-19)
(1.01259 0.0179847 0)
(1.00948 0.0713873 1.12997e-18)
(0.991811 0.0619197 -1.26166e-18)
(0.951001 0.0567753 1.4108e-18)
(1.01349 0.11196 -1.50416e-19)
(1.04303 -0.00550736 0)
(1.05148 -0.00107451 7.22301e-19)
(1.03933 -0.00967535 -7.23767e-19)
(1.07235 0.0433037 -4.29532e-20)
(1.06523 0.0244255 3.70505e-19)
(1.063 0.0575069 0)
(1.05429 0.0509303 -1.33272e-19)
(1.03199 0.0422295 0)
(1.02653 0.0388294 0)
(1.028 0.0139408 0)
(1.02399 0.016606 0)
(1.04022 0.0333805 2.74487e-19)
(1.0388 0.027111 -6.0687e-19)
(1.05152 0.0349255 -2.90868e-19)
(1.04832 0.035122 -3.20432e-19)
(1.07176 0.0658712 6.25294e-19)
(1.09738 0.053718 0)
(1.10687 0.0981499 0)
(-0.0255421 2.2703 5.72638e-20)
(-0.0250206 2.01783 1.27508e-21)
(-0.0211363 2.0252 0)
(-0.0266999 2.43872 -5.69986e-20)
(-0.0219971 2.3951 -2.67027e-21)
(-0.032895 2.46563 5.98239e-21)
(-0.0205978 2.61501 -1.65103e-20)
(-0.0232654 2.55627 3.848e-22)
(-0.0219905 2.50831 -4.71191e-21)
(-0.0156938 2.60861 1.27501e-20)
(-0.0207334 2.61077 -1.3959e-20)
(-0.00720585 1.51116 -9.26598e-22)
(0.00223765 1.63079 -3.90423e-20)
(0.372517 1.45034 -1.16116e-19)
(0.372488 1.38341 3.74598e-20)
(0.663341 1.42784 -2.40651e-19)
(0.529741 1.49472 -1.43038e-19)
(0.587874 1.46065 0)
(0.59286 2.4191 2.06869e-19)
(0.661444 2.41506 3.37479e-19)
(0.410855 2.50839 8.81559e-20)
(0.402124 2.53241 -6.07059e-19)
(0.509749 2.47302 6.13647e-19)
(0.552917 2.45577 0)
(0.487448 2.51369 -5.58653e-19)
(0.248086 2.58574 1.13994e-18)
(0.354453 2.55774 -7.70474e-20)
(0.283587 2.64748 -1.58271e-18)
(0.948142 2.37202 7.28917e-19)
(0.837991 2.37762 0)
(1.01108 0.000549208 2.62601e-20)
(1.01537 -0.0053418 -2.13e-20)
(1.01769 -0.00344106 -3.89022e-19)
(1.01506 -0.000799399 3.91137e-19)
(1.01248 0.00130405 0)
(0.650694 1.29203 0)
(0.674789 1.18592 0)
(0.789181 1.10505 0)
(0.668006 1.14921 0)
(1.18343 2.60994 5.99959e-20)
(1.07138 2.3574 0)
(0.832644 2.15881 3.87262e-21)
(0.822836 2.42599 0)
(0.921109 2.5202 -4.23443e-19)
(0.95629 2.47631 2.81641e-19)
(0.796025 0.184207 0)
(0.736422 0.156885 1.62933e-19)
(0.905514 0.152975 9.4891e-19)
(0.821432 0.156168 -3.54944e-19)
(0.775852 0.0905261 -1.09713e-18)
(1.08321 0.243784 -8.91023e-19)
(1.0001 0.307927 -1.80505e-20)
(0.926992 0.311903 8.5865e-19)
(1.00699 0.237451 7.21561e-19)
(0.947243 0.201446 -1.2551e-18)
(0.908256 0.205777 1.57039e-19)
(0.946756 0.273322 -3.32878e-19)
(0.924533 0.232232 0)
(0.995922 0.198304 6.18814e-19)
(1.0473 0.196666 0)
(1.04533 0.225316 0)
(1.10808 0.122602 2.89695e-19)
(1.07228 0.182846 -1.51909e-20)
(1.07652 0.243673 -1.57633e-19)
(1.10182 0.209317 0)
(1.02134 0.0467708 6.18824e-19)
(1.03966 0.0600554 7.72407e-19)
(1.03364 0.0454073 -6.1495e-19)
(1.04239 0.068149 -5.18294e-19)
(1.0179 0.0762794 -7.96227e-19)
(0.9843 0.161265 0)
(0.98901 0.106555 0)
(0.965804 0.0769362 -5.01923e-19)
(0.904033 0.098383 1.9986e-19)
(1.04029 0.10884 7.1614e-19)
(1.06946 0.125987 -8.35708e-19)
(1.07669 0.158678 7.46286e-19)
(1.03178 0.153483 0)
(1.07493 0.113326 0)
(1.05378 0.0939863 -3.42558e-19)
(1.04402 0.0997172 -5.84237e-19)
(0.578554 1.05033 1.41388e-19)
(0.602084 1.37254 -4.2958e-20)
(1.15344 2.72541 -2.30157e-19)
(1.21883 3.06798 2.81033e-21)
(1.24493 2.70856 -1.26878e-19)
(1.27305 2.69148 -2.97341e-20)
(1.20006 2.33162 -1.12598e-20)
(1.20662 2.9718 -9.63428e-20)
(1.22694 2.93743 2.38658e-19)
(1.20869 3.22055 -1.41338e-19)
(1.36789 2.95104 1.95253e-19)
(1.35592 2.86899 0)
(0.570009 0.806965 -5.06229e-20)
(0.101439 1.21533 5.6761e-19)
(0.565285 0.327844 5.39233e-19)
(0.402879 0.0727933 5.80383e-19)
(0.457875 0.309653 6.59903e-19)
(0.546714 0.425377 -1.07511e-18)
(0.549806 0.41985 8.80624e-19)
(0.455339 0.289519 -3.33842e-19)
(0.314898 0.218563 7.4781e-19)
(0.700107 0.27286 -3.59172e-19)
(0.656171 0.294366 0)
(0.585622 0.208097 6.08724e-21)
(0.74567 0.513685 3.58092e-19)
(0.728329 0.484912 -1.30169e-18)
(0.625053 0.446981 9.40707e-21)
(0.61778 0.437742 0)
(0.698603 0.717842 3.95023e-19)
(0.861471 0.782578 3.91067e-19)
(0.785244 0.864835 -4.57708e-19)
(0.906654 0.819936 -1.52347e-19)
(0.937428 0.865055 -3.65892e-20)
(0.944417 0.8647 3.74704e-20)
(0.872069 0.665154 -6.72379e-19)
(0.952067 0.717792 1.4145e-19)
(1.01189 0.7323 0)
(1.00261 0.708605 -1.9105e-19)
(1.02989 0.348856 2.10954e-19)
(1.15147 0.309194 2.86049e-19)
(1.07139 0.281329 3.64132e-19)
(1.02071 0.381757 -4.29309e-19)
(1.06968 0.44407 0)
(1.12601 0.42392 0)
(0.920867 0.385036 1.15228e-21)
(0.837035 0.32034 0)
(0.886887 0.318834 4.05902e-19)
(0.910035 0.320221 -8.44796e-21)
(0.958668 0.455759 2.03679e-18)
(0.920359 0.511122 5.22794e-19)
(0.924467 0.477877 -5.58096e-19)
(0.838513 0.466542 5.99413e-19)
(0.823419 0.461811 3.5954e-19)
(0.79322 0.444882 -3.52951e-19)
(1.02745 -0.000144125 6.48049e-19)
(1.02004 0.000143497 0)
(1.01857 0.00106999 4.22576e-19)
(1.02177 -0.00146271 -9.57239e-19)
(1.02241 0.00461384 4.65035e-19)
(1.02032 0.0116844 -9.73825e-19)
(1.02123 0.0110659 0)
(1.02039 0.011327 -2.02975e-19)
(1.01592 0.00793736 5.09227e-19)
(1.01655 0.0107395 -2.54121e-19)
(1.01727 0.010089 1.8708e-19)
(0.0358332 1.32953 0)
(0.0427101 1.38502 0)
(0.0525637 1.3296 0)
(0.0605322 1.27632 0)
(0.0757382 1.40223 -5.02248e-20)
(0.086047 1.36802 2.20431e-20)
(0.114428 1.54854 -1.42796e-20)
(0.10793 1.39027 -5.24397e-21)
(0.0406749 1.48114 2.23469e-20)
(0.0444144 1.47482 -1.72041e-20)
(0.0686457 1.38954 -1.10493e-20)
(0.0611234 1.39036 4.73903e-20)
(0.0555615 1.3674 7.07418e-21)
(0.0459451 1.3915 4.19748e-21)
(0.107486 2.35962 -1.48718e-19)
(0.0962076 2.40857 0)
(0.169317 2.03342 1.08452e-19)
(0.11472 1.70283 3.96427e-20)
(0.234629 2.0313 -8.96465e-20)
(0.199333 2.42191 0)
(0.262019 2.37181 -6.05588e-19)
(0.30215 2.36951 4.27771e-19)
(0.228554 1.9908 -2.49741e-19)
(0.154915 2.14964 1.69444e-19)
(0.141537 2.25619 0)
(0.0184314 1.87775 1.02835e-20)
(0.00076817 2.38435 -2.75013e-20)
(0.00612277 2.14217 0)
(0.0116146 2.44849 -1.37028e-20)
(0.0292811 2.29101 6.67176e-21)
(0.01752 1.429 -8.16687e-21)
(0.0140718 1.41074 1.36739e-19)
(0.0132011 1.41874 -4.49678e-20)
(0.0226084 1.42448 -3.82016e-20)
(0.0267106 1.45305 0)
(0.0088611 1.40201 0)
(0.000790166 1.30684 -5.82797e-20)
(0.0038769 1.39527 1.67466e-20)
(0.00958911 1.39379 0)
(0.00964343 1.29887 -4.42891e-20)
(0.0189248 1.2137 8.92982e-20)
(1.04084 0.0121562 0)
(1.0471 0.00843236 -6.77853e-20)
(1.03892 0.0227118 -4.88963e-19)
(1.04862 0.0213611 0)
(1.05246 0.0211734 0)
(1.03654 0.0124156 -6.80475e-21)
(1.0312 0.0122787 7.86048e-19)
(1.03175 0.0173181 9.52853e-19)
(1.02566 0.0212617 0)
(1.02262 0.0217761 0)
(1.03536 0.0262747 4.87802e-19)
(1.02607 0.0280423 0)
(1.02398 0.0278515 0)
(-0.018169 2.02256 0)
(-0.000914466 1.66082 -4.44613e-21)
(-0.00508721 1.7651 -3.13671e-20)
(-0.00348807 1.40184 0)
(-0.00743826 1.56574 -2.2407e-20)
(-0.0109842 1.47818 1.36737e-20)
(-0.00868238 1.41776 0)
(0.388019 1.63744 0)
(0.375333 1.30923 -7.38899e-20)
(0.300398 1.33981 0)
(0.426977 1.30796 9.1707e-21)
(0.478058 1.47246 0)
(0.458318 1.41678 2.42692e-20)
(1.03613 2.67202 -1.54056e-20)
(0.968405 2.40047 -9.16041e-19)
(0.921797 2.18958 1.02599e-18)
(0.852081 2.36946 2.42372e-19)
(0.847425 2.4811 0)
(0.917116 2.47718 0)
(0.931495 2.36555 0)
(0.910441 2.35517 -9.46465e-19)
(0.685981 2.4443 -3.95312e-19)
(0.799311 2.4337 -9.79512e-20)
(0.80957 2.40782 7.4384e-20)
(0.695244 2.388 0)
(0.800556 2.38331 0)
(0.758599 2.39692 -3.6899e-19)
(0.766878 2.47083 0)
(0.636165 1.09428 0)
(0.479831 0.893714 -5.19013e-19)
(0.572098 0.940872 -3.28078e-20)
(0.518594 1.02883 0)
(0.519114 0.970061 7.76571e-19)
(0.805598 0.887269 -1.29206e-19)
(0.813278 1.02284 0)
(0.78876 0.98959 1.84022e-19)
(0.673367 1.03437 0)
(0.674377 0.935609 0)
(1.16265 2.74885 -2.31205e-19)
(1.14008 2.8122 -9.86488e-20)
(0.927806 2.32495 1.03204e-19)
(0.895684 2.30471 -8.40324e-20)
(1.12839 2.72185 0)
(1.08234 2.69121 1.01086e-19)
(1.08803 2.47519 -3.14214e-19)
(0.98266 2.2288 -3.0226e-20)
(0.490766 1.32479 0)
(0.507075 1.05675 -1.24599e-19)
(0.579297 1.16766 0)
(0.849183 0.251411 0)
(0.756348 0.200619 0)
(0.662622 0.155203 0)
(0.841131 0.252413 -6.32652e-19)
(0.725742 0.245965 3.74016e-19)
(0.921912 0.0914628 -4.11908e-19)
(0.924539 0.133341 0)
(0.91289 0.142417 1.77978e-19)
(0.848804 0.118664 7.1159e-19)
(0.812854 0.0795152 -4.45942e-19)
(1.15332 3.34534 -7.14259e-19)
(1.20277 3.26494 0)
(1.15075 3.37456 -1.48448e-18)
(0.639433 3.53636 1.2586e-18)
(0.859887 3.1057 6.90836e-20)
(0.524354 0.787472 6.07922e-19)
(0.422018 0.785106 0)
(0.300253 0.353693 -1.47726e-19)
(0.481485 0.646382 8.5456e-19)
(0.572355 0.335131 -1.91016e-19)
(0.519308 0.45984 2.28254e-19)
(0.676913 0.514378 4.83832e-19)
(0.721666 0.556314 0)
(0.670937 0.56962 0)
(0.638785 0.524954 0)
(1.01259 0.619195 8.67721e-20)
(0.926158 0.560616 -5.0913e-19)
(0.9521 0.591755 3.8285e-19)
(0.981042 0.531929 -3.94723e-19)
(1.08992 0.498766 0)
(1.09853 0.590394 -9.56557e-20)
(0.857626 0.418473 -8.27819e-19)
(0.855153 0.406052 -1.02698e-18)
(0.787571 0.400983 6.28227e-19)
(0.796529 0.389604 -6.38829e-19)
(0.84365 0.344953 -5.19015e-19)
(0.790241 0.341296 6.34454e-19)
(1.02676 0.00620526 -4.94428e-19)
(1.02646 0.00642771 1.00588e-18)
(1.02954 0.00032156 6.27968e-19)
(1.03375 0.00122602 -7.56364e-19)
(1.03393 0.00936581 0)
(1.03019 0.0100522 -1.23076e-18)
(0.0641444 1.6385 1.84927e-20)
(0.0525639 1.59068 0)
(0.0914021 1.6879 1.23748e-19)
(0.098557 1.66896 -1.09539e-19)
(0.0922921 1.54968 2.55426e-20)
(0.0914303 1.55152 0)
(0.0122281 1.69438 0)
(-0.00412597 1.50986 9.98746e-21)
(-0.00242183 1.45593 -8.9818e-21)
(-0.00863735 1.56275 5.32145e-21)
(0.002131 1.88625 1.45161e-20)
(-0.0101209 1.93961 -3.35937e-21)
(0.496609 1.35349 -2.78536e-19)
(0.490236 1.35319 3.0618e-19)
(0.454661 1.30345 -3.25486e-20)
(0.43671 1.28154 7.82438e-21)
(0.642725 1.31047 0)
(0.557202 1.40105 1.05236e-19)
(0.573423 1.40794 -1.02453e-19)
(0.468842 1.29554 3.17722e-20)
(0.524264 1.24275 0)
(0.575674 1.20495 0)
(0.652979 2.40404 5.80696e-19)
(0.668718 2.44603 1.25881e-18)
(0.713074 2.45682 -8.67457e-19)
(0.609137 2.43071 -2.01745e-19)
(0.559539 2.52043 2.83787e-19)
(0.508898 2.4955 -7.56784e-19)
(0.977938 2.37218 -5.7426e-19)
(1.01168 2.38416 0)
(0.925562 2.16766 -6.58703e-19)
(1.05348 2.67022 0)
(1.0558 2.65681 0)
(0.594513 2.25208 -1.34279e-19)
(1.03461 3.15105 1.22587e-19)
(0.905747 3.02164 -2.48348e-20)
(0.25884 0.828879 0)
(0.282747 0.668883 -3.17963e-19)
(0.455342 0.630316 -3.20961e-19)
(0.374693 1.99555 0)
(0.459904 2.77691 -4.8092e-20)
(0.412679 2.53925 0)
(0.724006 0.668506 -8.33768e-19)
(0.808288 0.689939 1.11188e-18)
(0.827661 0.630546 -1.09836e-18)
(0.700508 0.63283 -1.0653e-19)
(0.755108 0.592504 -4.35731e-19)
(0.999141 2.7489 -9.32373e-20)
(1.04114 2.81161 -1.69504e-19)
(0.628861 2.11252 7.13533e-19)
(0.580562 1.68181 -5.07902e-19)
(0.691757 1.88369 -4.11999e-19)
(0.985567 2.43309 -1.12938e-19)
(0.993059 2.42605 2.99981e-19)
(0.645894 1.81534 2.86348e-20)
(0.437952 1.30336 1.45994e-19)
)
;

boundaryField
{
    wall-4
    {
        type            noSlip;
    }
    velocity-inlet-5
    {
        type            fixedValue;
        value           uniform (1 0 0);
    }
    velocity-inlet-6
    {
        type            fixedValue;
        value           uniform (0 3 0);
    }
    pressure-outlet-7
    {
        type            zeroGradient;
    }
    wall-8
    {
        type            noSlip;
    }
    frontAndBackPlanes
    {
        type            empty;
    }
}


// ************************************************************************* //
