/*--------------------------------*- C++ -*----------------------------------*\
| =========                 |                                                 |
| \\      /  F ield         | OpenFOAM: The Open Source CFD Toolbox           |
|  \\    /   O peration     | Version:  2206                                  |
|   \\  /    A nd           | Website:  www.openfoam.com                      |
|    \\/     M anipulation  |                                                 |
\*---------------------------------------------------------------------------*/
FoamFile
{
    version     2.0;
    format      ascii;
    arch        "LSB;label=32;scalar=64";
    class       volScalarField;
    location    "100";
    object      p;
}
// * * * * * * * * * * * * * * * * * * * * * * * * * * * * * * * * * * * * * //

dimensions      [0 2 -2 0 0 0 0];

internalField   nonuniform List<scalar> 
918
(
0.560164
1.16554
-6.6204e-05
0.559635
-0.0125826
1.13254
-0.512761
0.653523
0.540374
-0.102774
-0.0541364
0.542274
0.993078
0.758786
-1.12448
-0.0134821
0.653241
-0.381066
0.539511
-0.077294
0.674092
0.546905
0.549928
0.540505
0.599394
0.731812
0.874024
0.0328868
0.0144611
0.00859159
-0.0120881
-0.0386812
-0.0333321
1.01621
1.06727
1.08997
0.508081
0.336017
-0.378094
-0.452791
-0.438241
-0.535572
0.65482
0.656038
-0.215818
0.654937
0.652441
0.527374
0.539745
0.540661
0.541666
0.540658
0.542035
0.405251
-0.104125
-0.135583
-0.0835931
-0.0766279
0.0509252
-0.0527116
-0.0534912
-0.0535782
-0.0554345
0.457126
0.536788
0.533421
0.546505
0.55579
1.10509
1.07703
1.10317
1.01673
1.03328
0.971089
0.943786
0.779683
0.801437
0.743689
0.731915
-1.55117
-2.49371
-0.539624
-0.291536
-0.0109384
-0.011721
-0.00630136
0.650723
0.651983
0.653707
0.654976
1.08015
-0.377837
-0.481676
0.539657
0.53847
0.546769
0.547472
0.543494
0.542583
-0.0656888
-0.0621185
-0.0664976
-0.0717459
-0.0701246
0.647338
0.65407
0.541031
0.538032
0.563492
0.584187
0.573841
0.279663
0.610104
0.626152
0.567138
0.728071
0.719534
0.72939
0.847514
0.811186
0.911319
0.934439
0.0206114
-0.0003394
-0.0177912
-0.0209018
-0.020059
0.503907
0.496437
0.524346
0.511522
0.514032
0.253847
0.121896
0.42014
0.444329
-0.297759
-0.366519
-0.430582
-0.460114
-0.56806
0.615281
0.65691
0.653886
-0.225048
-0.152917
-0.288213
-0.079501
-0.14306
0.517617
0.524646
0.519636
0.535214
0.529675
0.531641
0.544025
0.541093
0.542654
0.467162
0.590269
0.331662
0.29593
-0.24217
-0.150778
-0.240223
-0.0663792
-0.063781
0.0655289
0.0915252
0.0372557
0.0251389
-0.0597226
-0.0554252
-0.0573242
-0.0552502
-0.0569893
0.449831
0.438547
0.469848
0.477427
0.523563
0.52498
0.529352
0.527436
0.894647
0.916861
0.924512
0.8984
-3.47362
-6.2374
0.0294828
0.164566
-0.00694294
-0.0103002
0.00178085
-0.00641285
-0.000715444
-0.00234743
-0.0111108
-0.0126361
-0.00767628
-0.00641856
0.645988
0.646457
1.00352
1.01178
0.977988
0.93129
0.527945
0.529979
0.53545
0.53135
-0.0580141
-0.0603838
-0.058801
0.652718
0.650979
0.652209
0.240908
0.150527
0.330998
0.360348
0.639846
0.62933
0.638356
0.626084
0.662282
0.941778
0.959973
0.958259
0.966662
1.01078
1.02725
0.992488
0.483285
0.493303
0.488231
0.527164
0.525081
0.52592
0.522374
0.523352
0.521502
-0.0275274
-0.404394
0.490556
0.506664
0.493362
0.494819
0.695894
0.775114
0.654744
0.655548
0.654966
-0.00946977
-0.0681388
0.250904
0.216387
0.389018
0.425642
0.404458
0.865725
0.826309
0.876391
0.849625
0.811186
0.836575
-0.356065
-1.84546
-0.969967
0.510626
0.32661
0.412743
0.00661239
-0.0104645
-0.00560782
1.00426
1.07511
0.645943
0.821243
0.823158
0.699619
0.729216
0.7844
0.711317
0.745128
0.77901
0.759946
0.570547
0.503592
0.520602
0.844223
0.899868
0.119797
0.0571067
0.0133538
0.110917
0.168874
0.142562
1.03487
0.953114
1.02281
0.537794
0.53852
-0.00946699
-0.02788
0.542788
0.542845
-0.014294
-0.00376823
0.396429
-0.831527
0.0973642
0.531403
0.521224
0.538393
-0.0886172
0.356775
-0.0533599
0.0473482
-0.0116968
0.53272
0.468303
0.42728
-0.00424093
-0.0231066
-0.0655802
-0.21016
0.535463
0.533768
0.53786
0.538795
0.53948
-0.0233273
-0.0198497
-0.0126866
-0.0598216
-0.0525911
-0.0677493
0.502249
0.521321
-0.169623
0.538011
0.540151
0.539967
0.533255
0.538873
0.537134
-0.0140162
-0.0181594
-0.0205777
0.220478
0.353792
0.631639
0.716492
0.603637
0.383222
0.150897
0.53777
0.599718
0.507133
0.65868
0.651953
0.651365
0.162847
0.0118453
0.172284
0.114064
0.529257
0.527995
0.519473
0.516426
0.533259
0.531368
0.535937
0.532967
0.535922
0.537298
-0.0449993
-0.0709648
-0.0811096
-0.147239
0.311821
0.571788
0.256879
0.285925
0.142255
-0.0487483
-0.0503948
-0.0507482
-0.0573355
0.0010511
-0.0275001
0.0416113
0.0408767
0.0110571
-0.0144857
-0.0101415
-0.0222045
-0.0145231
0.526006
0.525902
0.530783
0.539325
0.47799
0.481768
0.446463
0.467351
0.452487
0.390867
0.42655
0.401635
-0.00908486
-0.00228459
-0.00571847
-0.0215172
-0.0177637
-0.0396721
-0.0374598
-0.031727
-0.0287316
-0.0364943
-0.058613
-0.0621657
-0.167735
-0.284389
0.990191
0.909285
0.144247
0.524601
0.531067
0.527823
0.532767
0.535898
0.536691
0.534391
0.530933
0.52166
0.523363
0.519889
0.520826
-0.0999481
-0.242732
-0.0707835
-0.147016
0.149363
0.631031
0.365689
0.300535
0.296062
0.525715
0.896277
0.677451
0.647752
0.638285
-0.347146
0.0352453
-0.28623
0.323252
0.158215
0.632674
0.6817
0.703662
0.651575
0.605037
-0.0935657
0.558966
-0.0753785
-0.0222171
0.180535
0.0543929
0.639026
0.640845
0.646811
0.642911
0.652102
0.643125
0.624275
0.626227
0.642724
0.648437
0.481827
0.251148
0.201346
0.162834
0.645379
0.515875
0.564647
0.4908
0.524485
0.527086
0.525765
0.507085
0.514681
0.510195
0.516778
0.520315
0.528962
0.529445
0.52469
0.526822
-0.0517001
-0.0575054
-0.0221341
-0.132274
-0.124629
-0.187617
-0.0563808
0.079736
0.0412226
0.240876
0.344212
0.0561196
-0.0535451
-0.0264045
0.0177259
0.184136
0.212767
0.0766967
0.16281
0.156051
0.136205
0.239126
0.241694
-0.0300329
-0.0305182
-0.0346526
-0.0383697
0.0187702
0.0905905
0.0996202
-0.0109793
-0.0145122
-0.0488187
-0.05186
-0.0202504
-0.0252608
-0.0209781
0.00685341
-0.0555249
-0.0235403
-0.00976581
-0.011523
-0.0104186
-0.0152109
0.520689
0.522454
0.52267
0.53165
0.543824
0.558516
0.52404
0.500255
0.491013
0.494019
0.466925
0.477266
0.473075
0.486755
0.508021
0.516537
0.514874
0.517698
0.500026
0.501725
0.48823
0.491923
0.466926
0.447494
0.435424
-0.0462883
-0.00903058
-0.016922
-0.0415507
-0.0127265
-0.0240802
-0.014836
0.00422996
-0.0127659
-0.0134226
-0.023198
-0.0322708
-0.0321942
-0.06932
0.018484
-0.182718
-0.217105
-0.290972
0.892882
1.01672
0.81135
0.584874
0.606055
0.848805
0.932572
0.544437
0.736912
0.759657
0.589439
0.858295
0.529455
0.529048
0.526648
0.526122
0.527343
-0.00338555
0.104191
0.0996914
0.16534
0.281113
0.391369
0.32687
0.200904
0.330229
0.332747
0.623092
0.634816
0.591608
0.615936
0.616916
0.427507
0.503143
0.554777
0.51584
0.568301
0.590098
0.543899
0.577327
0.526084
0.481295
0.477392
0.427208
0.446674
0.422168
0.40539
0.520074
0.496699
0.507619
0.497737
0.519845
0.545907
0.54304
0.56582
0.580839
0.500476
0.455608
0.464848
0.49504
0.456707
0.472182
0.488005
0.239121
0.14221
0.224852
-0.0591829
0.0080638
-0.00273704
-0.0524197
0.000849772
0.284465
-0.404201
-0.380866
-1.00427
0.509402
0.93824
0.556566
0.534765
0.651977
0.640271
0.644579
0.661358
0.655194
0.633767
0.641651
0.646399
0.591959
0.613215
0.627646
0.624922
0.527049
0.38152
0.38149
0.328812
0.19888
0.239334
0.434766
0.359301
0.284437
0.28448
0.458672
0.344735
0.415534
0.44792
0.378931
0.333534
0.537227
0.602898
0.595961
0.57013
0.479459
0.49097
0.516061
0.549542
0.572938
0.607729
0.516188
0.522146
0.523373
0.520845
0.518111
0.521208
0.521462
0.524039
0.524659
0.527675
0.526741
-0.0492455
-0.0358566
-0.0462553
-0.0577142
-0.0138336
-0.0163637
0.0270106
0.0144011
-0.0130254
-0.00854625
-0.029239
-0.0333865
-0.0306329
-0.0234096
0.106526
0.118937
0.103287
0.0639656
0.255433
0.384193
0.458506
0.333888
0.228855
0.252616
0.27083
-0.0102913
0.0139566
0.00161425
0.0412419
0.0339944
-0.0407778
-0.0457788
-0.043507
-0.0322865
-0.0242113
-0.0469781
-0.0555436
-0.0438812
-0.0480744
-0.0507443
-0.0573555
0.502535
0.496024
0.497618
0.491571
0.490284
0.504491
0.508795
0.510796
0.516339
0.518574
0.508622
0.514052
0.518002
-0.0169211
-0.0406493
-0.0430785
-0.0379429
-0.0382203
-0.0366205
-0.0393966
0.128785
0.0611161
0.0644869
0.0166611
-0.117483
-0.0589807
0.496116
0.492831
0.480788
0.724888
0.57461
0.495196
0.591185
0.697226
0.282231
0.477386
0.313691
0.891349
0.788619
0.934547
0.54625
0.252334
0.419237
0.457338
0.274551
0.353076
0.325535
0.215803
0.246038
0.286762
0.383566
0.270973
0.24926
0.00577868
0.19644
0.306081
0.288257
0.410677
0.469849
0.274292
0.192847
0.147807
0.607286
0.626562
0.639791
0.612205
0.634786
0.584408
0.576227
0.591703
0.600022
0.593458
-0.734166
-0.44058
-1.38881
-0.718179
-0.259871
0.539219
0.516328
0.772761
0.642928
0.668636
0.653792
0.618091
0.589805
0.614838
0.634911
0.340252
0.451211
0.426034
0.432634
0.335373
0.264946
0.564352
0.561996
0.595833
0.619747
0.590497
0.621288
0.513993
0.513711
0.513178
0.509416
0.507676
0.51002
0.061812
0.0291631
0.0707649
0.053302
0.0310931
0.019147
-0.018658
-0.0291236
-0.0347132
-0.0334647
-0.0188864
-0.0152297
0.178928
0.114748
0.035459
0.0636484
0.0022495
-0.0660684
-0.0860993
0.0213491
0.117711
0.10758
0.410308
0.658527
0.479004
0.646031
0.489399
0.544823
0.469395
0.460571
0.484468
0.38333
0.464032
0.26282
-0.246186
-0.156595
0.79733
0.807562
0.581728
0.411545
0.177541
0.350015
0.541441
0.470072
0.504843
0.573126
0.559623
0.0402268
0.0941282
0.392148
0.619083
0.247804
0.238146
0.231805
0.419702
0.336248
)
;

boundaryField
{
    wall-4
    {
        type            zeroGradient;
    }
    velocity-inlet-5
    {
        type            zeroGradient;
    }
    velocity-inlet-6
    {
        type            zeroGradient;
    }
    pressure-outlet-7
    {
        type            fixedValue;
        value           uniform 0;
    }
    wall-8
    {
        type            zeroGradient;
    }
    frontAndBackPlanes
    {
        type            empty;
    }
}


// ************************************************************************* //
