/*--------------------------------*- C++ -*----------------------------------*\
| =========                 |                                                 |
| \\      /  F ield         | OpenFOAM: The Open Source CFD Toolbox           |
|  \\    /   O peration     | Version:  2206                                  |
|   \\  /    A nd           | Website:  www.openfoam.com                      |
|    \\/     M anipulation  |                                                 |
\*---------------------------------------------------------------------------*/
FoamFile
{
    version     2.0;
    format      ascii;
    arch        "LSB;label=32;scalar=64";
    class       surfaceScalarField;
    location    "100";
    object      phi;
}
// * * * * * * * * * * * * * * * * * * * * * * * * * * * * * * * * * * * * * //

dimensions      [0 3 -1 0 0 0 0];

oriented        oriented;

internalField   nonuniform List<scalar> 
1300
(
3.75095
5.62643
-3.25142
3.75095
-7.75588
5.62643
-4.41791
4.41791
-0.355812
0.355812
1.87638
1.87457
-2.70228
2.70228
-2.02614
2.02614
-2.52127
2.52127
-5.24648
5.24648
-5.06943
5.06943
4.64787
-4.64787
-6.31888
6.31888
-0.93558
0.93558
-3.70207
3.70207
3.16957
-3.16957
-1.9005
1.9005
0.0849051
-0.0849051
-0.553467
4.30442
3.19749
3.19749
-2.00589
2.00589
-4.87017
4.87017
6.21806
-6.21806
5.23135
-5.23135
-1.97992
-2.4963
1.80083
-11.457
-5.95505
-5.95505
-8.44036
8.44036
-2.81393
2.8125
2.94647
-2.94647
-1.75955
1.75955
-4.38102
-0.03689
-4.38102
4.38678
0.0311362
4.38678
-0.456472
0.10066
-0.456472
4.01934
-4.01934
0.250809
0.105003
0.250809
3.0654
-3.0654
-1.87712
3.75351
1.87383
-1.8719
6.17633
-1.87905
3.75362
-6.00783
6.00783
-2.9487
0.24642
-2.9487
2.4889
0.213382
2.4889
-6.84792
6.84792
-2.08595
0.0598059
-2.08595
1.97121
0.0549296
1.97121
2.88226
-2.88226
-2.62752
0.106254
-2.62752
2.39243
0.12884
2.39243
0.353498
5.27293
-5.97993
8.79242
-5.27293
0.0264519
5.20832
0.0381599
5.20832
-5.10607
0.0366417
-5.10607
5.01258
0.056848
5.01258
4.72952
-0.0816512
4.72952
-4.76903
0.121161
-4.76903
-3.36817
-4.05521
-6.46879
0.149915
-6.46879
-1.02526
0.0896804
-1.02526
0.822936
0.112644
0.822936
-3.68495
3.68495
-4.12488
0.422809
-4.12488
3.12394
0.0456345
3.12394
1.86849
1.88247
5.61944
-5.61944
2.44986
-1.87436
-0.0261464
-1.87436
-1.97606
-3.25529
1.97606
-0.0755543
-0.165569
0.250474
-0.165569
3.15945
0.0380321
3.15945
2.2351
0.157329
-2.2351
0.22921
3.28141
-3.28141
1.33427
0.671618
1.33427
-5.56268
5.56268
4.95718
0.0554046
-4.95718
0.0870048
6.15676
0.0612978
6.15676
-6.19954
-0.0185226
-6.19954
2.53233
-5.02863
-2.66595
6.13719
0.181686
-6.13719
0.182138
2.91847
0.0279973
2.91847
-2.91773
2.91773
-2.98487
0.0384061
-2.98487
-2.15886
0.399312
-2.15886
1.46107
0.298476
1.46107
-4.28293
-0.0980893
-4.28293
-4.27571
0.150828
4.27571
0.111067
1.12461
-1.12461
-0.587944
0.131472
-0.587944
-4.14628
-0.136652
4.14628
-0.126942
-3.9056
-0.113738
-3.9056
-3.02464
0.0397659
3.02464
0.0407655
3.11291
0.0465412
-3.11291
0.0475076
-1.87081
3.75328
-1.88014
3.75397
-5.62879
-0.379038
-5.62879
6.31867
-0.310841
6.31867
3.34342
0.358648
-3.34342
0.394722
2.31615
0.172749
2.31615
-6.80809
-0.0398279
-6.80809
6.83515
0.0127644
6.83515
2.18284
0.133306
-2.18284
0.0968982
1.92442
0.0467887
1.92442
2.90302
-0.0207599
2.90302
-2.87609
-0.0061767
-2.87609
2.79006
-2.79006
2.71501
0.0750456
-2.71501
0.0874885
-11.1332
11.1146
-0.0352899
-11.0979
5.17303
5.17303
4.1535
0.576028
4.1535
-4.989
0.219966
-4.989
2.7037
-5.36965
3.10902
-6.47719
4.65661
-16.1136
4.28268
-8.33789
6.70598
-6.70598
6.59642
0.109569
-6.59642
0.127624
-1.14377
0.118512
-1.14377
-3.08473
-0.600222
-3.08473
4.32501
-0.64006
4.32501
-3.02783
3.02783
-3.07733
0.0494997
3.07733
0.0466077
1.88479
0.0396321
-1.88479
0.0104328
0.188508
0.0623012
-0.188508
0.022939
3.49716
-0.215747
3.49716
-3.08169
-0.199721
-3.08169
-1.24406
0.100289
1.24406
0.0902081
-5.81359
0.250915
-5.81359
-11.1908
0.0929062
-11.1526
-6.10663
-6.10663
2.33373
11.1262
-2.89389
0.0178001
2.89389
0.0245825
2.97427
0.0535629
-2.97427
0.0565395
-2.8569
0.0668434
2.8569
0.0608314
-2.53422
0.375359
-2.53422
-1.06194
1.06194
-1.2255
0.163555
1.2255
0.235577
1.39981
-0.275197
1.39981
0.707976
0.114959
-0.707976
0.120032
-3.80204
-0.103559
-3.80204
6.55446
-0.235798
6.55446
-2.96566
-0.116029
2.96566
-0.0626375
-0.0332959
11.1479
-5.13973
0.0336625
5.13973
-11.2092
11.2429
-3.20457
0.670344
3.20457
0.948928
5.28295
0.279725
-5.28295
0.293953
6.78776
0.0473902
-6.78776
0.0817765
-2.59228
-0.492444
-2.59228
-5.04838
-0.580407
5.04838
-0.723373
-11.4746
-0.204952
11.6795
-11.4177
6.01854
0.138219
-6.01854
11.3811
-1.02211
-0.102502
1.02211
0.0398317
1.72928
-0.329465
1.72928
3.69662
-0.199461
-3.69662
-0.105423
-6.7096
-0.0984845
6.7096
-0.155139
-2.14707
-0.445207
2.14707
-0.417799
-4.26714
4.30517
1.90919
-2.37972
-2.64891
-5.63501
1.85184
1.90144
4.30171
-10.1156
-5.99795
-9.93349
7.26049
-6.96654
-9.22982
9.14817
7.91537
-8.02911
-5.78465
5.83126
6.483
-6.44224
1.87885
1.87466
8.04957
-7.80315
-15.5507
15.1717
7.59098
-7.53118
15.7041
-15.7439
-17.7852
17.8326
-5.70735
5.8136
-6.74098
6.73481
-6.97736
6.91472
-2.83841
-3.63878
13.0707
-12.9208
8.66838
-8.69452
-8.65022
9.07303
3.38261
0.922561
3.42915
-1.88213
3.76098
-1.87149
3.78068
2.76079
-5.5992
2.60886
-5.25777
4.40689
4.26149
-4.33133
-1.30368
-5.92503
5.95302
-5.81432
5.87515
9.17244
-9.20933
-1.88518
3.75984
-1.86879
3.77023
-3.42499
-2.35966
3.37936
0.922348
8.0439
5.02678
-8.22559
-1.7079
-8.05103
7.85157
-8.23591
8.03619
-0.433771
5.81983
-5.38605
4.4364
-1.566
7.38583
5.69449
5.91446
5.8655
-5.58578
1.10103
-6.48709
-6.40008
-2.20428
2.33575
2.08571
-1.98071
6.16708
1.74829
6.04014
-5.77273
-2.25638
-5.87629
3.82035
2.01091
3.86985
4.07857
2.40443
4.11834
3.03039
-3.03602
0.00563765
-3.05673
6.08712
0.723813
-5.41639
-4.49404
4.99057
3.059
5.20395
-5.57396
-2.22919
-5.17924
-9.50709
-6.04361
-10.0875
10.049
5.12268
9.73814
-11.915
11.7599
4.81694
2.77404
4.87187
-4.96664
-2.56454
-4.86974
11.621
-2.64745
-8.97358
-10.2821
-7.50316
10.2693
5.43473
10.9252
6.90746
11.007
4.41226
7.20877
-9.847
2.34383
-3.86842
-1.83893
-3.78093
3.67601
2.1376
3.80485
-4.2177
-2.52328
-4.1999
-4.29602
-2.68133
4.31678
2.41803
-4.41858
-3.81734
4.53461
2.38011
4.03443
-10.0324
4.30347
-7.94225
-9.16502
-3.75575
-9.0374
3.5619
2.61662
-6.17852
-2.0373
8.59875
-4.33726
7.29507
-5.22338
-3.47114
-5.21295
-6.90951
-1.74071
-6.75868
-8.8489
8.35646
-9.14455
8.50449
12.4686
-5.6254
-6.84318
-3.96848
-2.47375
3.92097
-0.491825
-3.71045
3.71609
0.0505232
3.8312
4.75376
4.26194
-3.88509
-1.92923
-3.82855
3.8251
2.05005
3.89194
6.86361
2.30883
6.89475
-6.63691
-2.57242
-6.735
9.0115
-8.61219
2.83043
-2.73015
5.40357
2.63262
-5.18782
-2.8632
6.20792
-3.22022
-2.9877
-12.2072
10.521
1.68624
-4.82139
-0.384988
-0.469893
-5.48398
-3.74584
5.36281
0.551645
11.0726
7.32678
-5.51116
5.76208
6.16838
6.22379
-0.176297
5.78852
-5.11818
5.25834
-2.61554
-2.6428
5.49346
-5.63011
-1.24154
-5.54796
4.30642
0.410024
1.38724
-1.13676
-1.74787
-0.456409
-1.62784
1.17842
0.907289
1.24072
0.958505
1.37724
-2.93296
0.502806
2.43015
-1.97445
-1.4779
-3.86298
-1.13393
4.99691
5.74859
2.10297
-5.64317
-0.233119
2.50821
-2.39557
-0.817707
-3.04528
2.22821
-3.04591
-3.6637
-2.09825
5.76195
-3.36984
-0.458712
3.31627
0.553572
-3.82731
-2.09772
3.7889
0.329435
-3.12835
6.19088
-3.06253
-5.05758
2.52742
3.5597
4.53834
-4.78958
2.44785
2.34173
-1.22988
4.25507
0.94888
4.42782
-6.971
4.74182
5.82547
3.24756
-6.18412
1.00488
-5.96613
8.55347
-7.38179
-1.17168
4.17114
4.38233
7.03544
5.43314
-5.65366
12.6891
-1.20794
-6.17385
7.17406
-3.9265
4.86
-8.7865
-10.2931
4.11928
-9.09792
10.8709
-1.77298
-3.61175
-8.30327
12.7097
-1.19907
-11.5106
8.53906
-4.29967
-4.42354
8.72322
-6.94712
6.98809
-1.99394
-4.99415
-10.067
-5.67691
10.1655
1.59442
-9.94533
12.2892
-2.73657
4.12362
0.748253
4.17041
3.30894
-5.49411
2.18517
3.63818
-5.63212
2.07963
-7.57374
-6.70816
12.0391
-5.33097
-10.4639
-9.48333
-0.980576
2.53535
9.75382
-9.44281
7.4042
2.03861
3.30088
0.591066
-3.37592
-0.40501
0.233334
4.51286
-4.74619
4.03818
4.19551
3.26232
1.25054
3.84573
2.10729
-3.87032
-0.329588
-4.1643
1.48296
-1.74627
-3.69542
5.17838
-4.06757
0.372153
-2.74421
-3.49764
6.24185
-4.58314
3.03465
3.15623
5.08471
-4.91374
1.4161
-2.3927
-2.52104
2.65147
-4.39774
1.99516
3.18322
4.37527
0.557937
5.86748
6.17165
-8.4841
0.541852
11.1984
-9.49053
2.4558
8.55115
-9.86001
0.376676
-8.66072
1.00834
-5.3456
-5.17018
5.21278
-6.95349
-3.57373
6.23524
0.659508
-6.34631
-0.412375
-6.0134
-2.83551
-6.4586
-3.03369
-6.11086
-8.68735
-1.64537
-7.04198
6.71108
-6.65947
-3.42803
7.38284
1.12165
-7.38719
7.28469
-7.46452
7.13505
0.095487
3.6206
4.35742
1.88367
-2.39072
4.27439
-5.13555
7.44438
-8.74802
3.61247
4.21988
-6.79231
-4.52814
5.0034
4.0081
5.30187
8.85716
-10.3195
1.46235
-10.617
11.9487
-1.33173
-16.3628
5.7458
-7.50562
2.43246
0.397971
2.55098
0.540765
2.4985
-3.03926
-2.18938
-2.09917
-2.44355
-3.46511
5.90866
1.08265
-3.53268
2.45003
-3.56726
4.64991
-0.221336
-3.31135
5.26523
-2.76673
5.6632
-3.78859
1.8746
3.44119
5.7549
-2.31371
4.39616
-1.76354
1.93215
-4.24586
-1.53295
-2.95413
5.09173
-3.28771
3.65987
-0.34554
4.00541
-4.04583
0.825603
-0.783509
3.412
3.64121
4.31733
-3.06679
2.91623
-4.67977
-1.32963
-4.12183
-0.938613
-0.254978
-3.68556
3.94054
5.95752
-6.2125
-5.22522
9.50586
-4.28064
7.67352
-5.37125
-2.30227
-4.23736
-4.37483
3.862
1.92652
9.60004
0.205637
-5.57689
-4.91254
-3.96361
3.09924
2.15911
-1.69048
3.37672
2.16037
-0.773134
0.434994
0.80573
1.75867
-1.32368
0.308092
1.45058
-0.828669
1.69286
0.815347
-1.80782
0.179986
-1.35218
3.58038
1.07798
-1.98526
0.661589
0.984143
-3.59969
5.08399
-2.69148
-2.39251
6.06813
1.1465
-3.83798
4.40146
-3.99143
2.4074
-3.54133
-1.43058
-5.42201
-3.67372
-2.51432
4.96435
-3.39434
5.49731
1.30065
-5.26419
6.56484
-3.73024
1.63199
-3.03936
3.85471
-0.919667
-2.11969
2.90039
2.86156
-3.0903
0.0450253
-0.189913
2.40135
-2.59126
-0.644567
-2.61902
-4.57374
4.90318
-2.10508
4.55293
2.16931
-1.91734
6.47027
1.80863
-3.72598
-3.24895
-3.70766
-1.38425
3.15409
-0.568157
-4.30158
-5.56231
4.16827
0.259542
-7.08793
7.90637
-0.818444
-4.02893
-0.712892
4.88403
-6.10084
0.468722
-4.02121
3.88516
4.83404
5.09358
-11.2902
-0.220363
-6.16755
1.11917
-7.28672
5.5015
-3.52369
7.64297
-10.2871
6.85904
-9.16541
6.47129
-0.815428
6.23144
-4.04627
2.74215
-8.41906
-6.82463
5.57601
-2.80196
6.32426
-3.18469
9.50895
-5.92126
5.35589
4.15306
-1.01863
-4.19432
-5.3716
4.35297
-0.0157146
4.15469
4.9805
-2.87321
4.65091
2.27011
-4.66281
-2.12763
-6.49622
1.83341
-3.33999
-1.92141
3.75482
3.1633
3.75436
1.23378
-3.34935
7.19825
-8.17883
-1.86728
-3.30289
5.36489
-1.01192
3.45185
-6.75474
-1.89375
4.77433
-0.777474
-3.99686
0.85107
-4.4248
1.68023
-6.10502
5.27326
-5.68563
2.2196
-9.72522
-5.16759
-5.12776
-2.25516
-5.20936
-7.54594
5.29078
-1.80013
5.48456
-8.47492
7.69745
-3.47378
8.76456
-5.40954
-1.04906
5.82734
1.30771
10.0723
0.22695
-4.75509
-1.9264
3.82265
-1.89626
1.17284
-3.45861
0.364046
2.50537
3.56276
-6.81179
0.0194847
-4.7356
-3.90684
7.91494
5.59903
11.5565
1.23704
9.09309
-1.17816
10.3301
4.12372
4.35929
-2.97331
4.43566
0.96723
4.5797
-0.927119
2.80172
1.62386
1.71354
0.682028
2.30378
1.33743
3.12938
0.0901247
-2.00905
4.61454
-8.57815
-0.962353
-8.00212
1.14604
5.70191
-4.55587
2.8996
-0.740493
1.00334
-0.138896
-1.14243
1.28133
-2.7817
-1.91557
-0.464991
-1.68649
2.34807
1.8939
-1.88308
-0.898615
0.348431
-4.02215
3.1929
-3.14787
-0.286313
6.27853
-2.814
0.222742
-1.18201
-2.39628
-2.85269
2.6727
6.1764
0.293867
3.11387
5.19705
3.09933
0.226117
3.88043
-5.65341
-3.69331
-5.87377
-0.372271
4.51176
1.76249
7.99133
5.91555
4.90363
-1.85111
-10.0299
6.49955
-2.06389
5.16782
-1.17096
-4.93406
5.06338
2.381
-5.72289
0.0372557
-4.89681
-6.9607
-0.509454
8.2069
-9.56282
8.51375
5.67825
1.36373
-4.38779
-0.739967
4.22424
0.135054
10.4652
-1.13188
-6.68846
7.82035
-4.57003
3.60768
0.731362
2.64536
2.01269
1.2722
-5.41627
-9.97213
-2.07196
-1.52773
-4.46446
0.532448
-2.42634
6.20856
-2.60089
3.90629
5.21946
6.2228
-2.12755
-4.08495
6.40819
-2.5019
3.72091
)
;

boundaryField
{
    wall-4
    {
        type            calculated;
        value           uniform 0;
    }
    velocity-inlet-5
    {
        type            calculated;
        value           uniform -3.75095;
    }
    velocity-inlet-6
    {
        type            calculated;
        value           uniform -5.62643;
    }
    pressure-outlet-7
    {
        type            calculated;
        value           nonuniform List<scalar> 8(3.25142 7.75588 4.47622 9.65614 7.42338 5.19828 5.81272 8.9393);
    }
    wall-8
    {
        type            calculated;
        value           uniform 0;
    }
    frontAndBackPlanes
    {
        type            empty;
        value           nonuniform List<scalar> 0();
    }
}


// ************************************************************************* //
