/*--------------------------------*- C++ -*----------------------------------*\
| =========                 |                                                 |
| \\      /  F ield         | OpenFOAM: The Open Source CFD Toolbox           |
|  \\    /   O peration     | Version:  2206                                  |
|   \\  /    A nd           | Website:  www.openfoam.com                      |
|    \\/     M anipulation  |                                                 |
\*---------------------------------------------------------------------------*/
FoamFile
{
    version     2.0;
    format      ascii;
    arch        "LSB;label=32;scalar=64";
    class       volVectorField;
    location    "100";
    object      U;
}
// * * * * * * * * * * * * * * * * * * * * * * * * * * * * * * * * * * * * * //

dimensions      [0 1 -1 0 0 0 0];

internalField   nonuniform List<vector> 
918
(
(0.98516 -0.000508458 0)
(0.00501918 2.96624 0)
(0.0107546 0.873433 0)
(0.979705 0.00214492 0)
(-0.0124048 2.06251 3.75098e-20)
(-0.0070527 2.9488 -2.42321e-18)
(0.82482 1.17157 4.50402e-19)
(0.106672 0.077674 -1.45937e-20)
(0.999909 -0.0002755 0)
(0.0667633 0.744536 0)
(0.0206761 0.482501 0)
(0.731844 0.00732843 0)
(0.0111084 2.93041 0)
(0.00260103 2.79526 0)
(-0.018136 3.14482 7.83096e-19)
(-0.0207183 1.92013 1.18461e-20)
(0.286407 0.0630179 1.02115e-18)
(0.190359 1.1496 3.16014e-19)
(0.962709 0.00501236 0)
(0.00872373 0.40387 0)
(-0.00673124 0.0271848 -6.68638e-19)
(1.00197 -0.00497409 0)
(1.00023 -0.00978302 0)
(0.975741 -0.00643821 0)
(0.598029 0.0314094 0)
(0.0141129 2.64288 0)
(-0.0148679 2.91 8.88423e-19)
(0.0183377 0.918124 0)
(-0.0203492 1.1853 0)
(0.021346 0.901754 0)
(-0.0157907 2.58336 0)
(-0.00141576 2.11637 -2.99582e-20)
(-0.0112014 1.90005 0)
(-0.0206004 2.98761 -8.69641e-23)
(-0.0166796 3.00528 1.88309e-18)
(0.00209624 3.00016 0)
(0.871484 -0.00966274 0)
(0.398604 0.92637 1.82546e-19)
(0.811422 1.18504 -5.14375e-19)
(0.962984 1.0312 5.61884e-19)
(0.678884 1.27697 -1.05159e-19)
(0.678048 1.25141 6.01245e-19)
(0.135532 0.118644 1.42357e-20)
(0.140729 0.0604252 0)
(1.1683 0.567251 0)
(0.100274 0.092411 6.4159e-20)
(0.0745909 0.0563578 -6.65893e-20)
(0.919932 -0.00745827 0)
(1.00027 0.000162919 0)
(0.999909 0.00034006 0)
(1.00363 -0.00775691 0)
(1.00096 -0.000916661 0)
(1.00017 3.85551e-05 0)
(0.072572 1.825 -7.74619e-19)
(0.0329883 0.946433 0)
(0.098732 0.823946 0)
(0.0152797 0.893011 0)
(0.0416055 0.663613 0)
(0.0074218 2.01558 0)
(0.00320466 0.770053 0)
(0.0203711 0.50558 0)
(-0.0012559 0.757267 0)
(0.0146021 0.460473 0)
(0.842251 -0.0156514 0)
(0.842367 0.027265 0)
(0.757654 0.00421064 0)
(0.800681 0.0295599 0)
(0.700834 0.0194155 0)
(0.0146773 3.00041 8.97581e-19)
(0.0114751 3.00811 0)
(0.00609825 3.00272 0)
(0.0135312 2.99738 1.01718e-23)
(0.00795524 2.95848 -1.33403e-18)
(0.0145022 2.98203 0)
(0.0108985 2.90355 0)
(0.0241788 2.93095 2.02715e-24)
(0.00480141 2.82508 0)
(0.0300431 2.91672 0)
(-0.00458102 2.74557 0)
(0.302562 3.53462 0)
(-0.131503 3.6146 0)
(0.1362 3.23458 -7.28732e-19)
(-0.0142878 2.97518 0)
(-0.028143 1.98669 0)
(-0.00704411 2.17016 -1.16838e-20)
(-0.0145211 1.9286 6.38055e-21)
(0.33726 0.137182 -3.54517e-19)
(0.317307 0.0382712 -3.44634e-19)
(0.291421 0.139795 -1.06195e-18)
(0.249552 0.0686279 -6.89701e-19)
(0.229799 0.985818 0)
(0.27382 1.29879 -3.68376e-19)
(0.369368 1.23509 6.15114e-19)
(0.987419 0.00858378 0)
(0.941838 0.00580367 0)
(1.0003 0.000581831 0)
(1.00286 0.00931052 0)
(1.00301 0.00847666 -2.76034e-18)
(0.991906 0.00969264 2.0845e-18)
(-0.00964994 0.745619 0)
(0.0138263 0.415336 0)
(-0.055498 1.00903 0)
(-0.0317677 0.795928 0)
(0.000938929 0.403077 0)
(-0.0837299 0.0945376 2.07471e-19)
(0.0509785 0.0652507 0)
(0.993556 -0.00836849 0)
(0.954475 -0.00653436 0)
(0.743386 0.030263 0)
(0.677806 0.0288583 0)
(0.660698 0.0266384 0)
(0.973092 -0.00704671 0)
(0.584943 0.0740261 0)
(0.458738 -0.000479581 1.54828e-18)
(-0.0375938 2.8607 6.48671e-19)
(0.0408238 2.91003 0)
(0.0531349 2.88675 0)
(-0.00462413 2.70137 0)
(-0.0131639 2.98526 8.39529e-19)
(-0.0177242 2.89501 0)
(-0.0153633 2.98806 -2.60653e-18)
(-0.0132792 2.92518 8.92849e-19)
(-0.039616 1.35771 0)
(-0.00835979 1.39071 0)
(-0.00727721 2.13558 5.73038e-22)
(-0.00637703 2.09721 0)
(-0.0230709 1.90765 0)
(0.938718 -0.0073483 0)
(0.857693 -0.00997477 0)
(0.86253 0.00575465 0)
(0.949682 -0.00778214 0)
(0.884149 -0.00820274 0)
(0.509465 1.11891 -2.30281e-19)
(0.558879 1.17022 0)
(0.363444 0.870855 3.38533e-20)
(0.306756 0.730011 0)
(0.925079 1.06735 -1.5508e-19)
(1.04461 0.876518 3.16989e-19)
(0.36175 1.36144 0)
(0.530706 1.33273 0)
(0.551339 1.27188 0)
(0.121137 0.182556 -3.03863e-19)
(0.163232 0.11612 0)
(0.174334 0.0997052 1.89815e-19)
(1.01516 0.9308 0)
(1.0893 0.783641 0)
(1.11474 0.725299 -2.52966e-19)
(1.14766 0.626871 0)
(1.19739 0.40939 5.79325e-20)
(0.957816 -0.00867905 0)
(0.962547 -0.010019 0)
(0.901813 -0.0079897 0)
(0.984213 -0.00913959 0)
(0.974729 -0.00932119 0)
(0.937155 -0.00637574 0)
(1.00019 0.00234132 0)
(1.0009 0.00141823 0)
(0.999909 0.000856001 0)
(0.0355718 2.06971 4.29087e-19)
(0.118263 1.76804 0)
(0.0182489 2.18297 6.60355e-19)
(0.0458338 1.87929 -5.5058e-19)
(0.107528 1.15184 -2.58756e-19)
(0.0503369 1.02785 0)
(0.144619 0.989973 0)
(0.00926455 0.845073 0)
(0.0213087 0.598888 0)
(-0.000676685 2.23971 -8.06872e-22)
(0.0162898 2.01903 0)
(-0.00156872 2.24284 -2.71779e-20)
(0.00888888 2.02584 4.09043e-20)
(0.00613622 0.81419 0)
(0.00454892 0.789938 0)
(0.0164865 0.546414 0)
(-0.00575378 0.748743 0)
(0.00805331 0.439932 0)
(0.938946 0.0098943 0)
(0.851108 -0.0145811 0)
(0.927968 0.000516802 0)
(0.842958 -0.0128689 0)
(0.809248 0.00130257 0)
(0.899297 0.0208433 0)
(0.87532 0.0244325 0)
(0.783039 0.00144188 0)
(0.0056372 3.06483 -8.34013e-21)
(0.0167713 3.05771 0)
(0.0146881 2.96899 0)
(0.00867942 2.87615 0)
(0.916642 3.94388 0)
(1.22886 3.27786 9.2071e-19)
(0.0683448 3.0676 0)
(-0.029527 2.90132 0)
(-0.0113017 1.41424 0)
(-0.0338024 1.70252 0)
(-0.0201453 1.54347 0)
(-0.031124 2.54309 -9.38058e-21)
(-0.0158164 2.23827 0)
(-0.0215967 2.384 0)
(-0.000502352 1.95484 9.51976e-22)
(-0.00359213 2.24016 -1.02833e-20)
(-0.00545002 2.20492 -6.66574e-21)
(-0.00836207 1.93982 0)
(0.387031 0.120645 5.42217e-19)
(0.367329 0.0242592 -5.32095e-19)
(0.257994 1.58286 0)
(0.278255 0.759099 -3.16662e-19)
(0.176695 1.67037 -1.04904e-18)
(0.225383 1.22103 1.0513e-18)
(0.901896 0.0062489 0)
(0.967318 0.01121 0)
(0.974506 0.0108402 0)
(0.923245 0.00634215 0)
(-0.00788336 0.744532 0)
(-0.00895173 0.741941 0)
(0.0087904 0.421118 0)
(0.0915918 0.0678959 5.89579e-19)
(0.0894007 0.0407446 -6.92033e-19)
(0.0496553 0.0525845 0)
(1.10243 0.0872802 2.72379e-20)
(1.08438 0.0400718 0)
(1.01546 0.0405006 0)
(0.908836 -0.00494137 0)
(0.439475 0.103513 0)
(0.498553 0.0869655 -2.4751e-18)
(0.410374 0.0179707 9.26164e-19)
(0.00848458 2.98063 6.98763e-19)
(-0.0327681 2.86498 4.65256e-20)
(0.00357333 3.05026 -1.76759e-20)
(0.0202734 3.04332 6.29e-19)
(-0.0150105 2.9966 2.93399e-20)
(-0.0129353 2.9495 -1.18084e-22)
(-0.0172462 3.0119 -5.43787e-19)
(0.0148917 3.02368 3.93605e-19)
(0.00740468 3.03683 -6.22713e-19)
(0.934268 -0.00113297 0)
(0.939653 -0.00313936 0)
(0.846277 -0.00945858 0)
(0.956362 0.0120713 0)
(0.942373 0.0134986 0)
(0.881262 0.00572797 0)
(0.916331 0.0173917 0)
(0.925428 0.0153806 0)
(0.837041 0.00307291 0)
(0.711981 1.39591 3.48773e-20)
(0.745538 1.5046 0)
(0.17853 0.308887 7.06008e-20)
(0.228342 0.664315 5.67819e-19)
(0.260236 0.714048 -3.31816e-19)
(0.259604 0.513063 6.609e-19)
(0.346971 0.810031 1.59927e-18)
(0.141015 0.229449 3.77695e-19)
(0.251139 0.140198 7.29688e-19)
(0.212256 0.131276 1.88971e-19)
(0.2122 0.0820786 3.57647e-19)
(1.18631 0.467651 6.60377e-20)
(1.20063 0.258972 6.0911e-20)
(0.010468 2.23174 2.54172e-19)
(0.0402596 1.94772 0)
(0.972008 0.0296824 0)
(0.944178 0.0140854 0)
(0.870262 -0.0176999 0)
(0.0112371 3.07413 0)
(0.019538 2.94401 1.1475e-18)
(0.0164065 2.95623 0)
(0.00647574 2.85062 -1.13823e-18)
(0.00637869 3.09083 2.78015e-19)
(0.0072292 3.08277 0)
(0.778213 1.80554 -1.56228e-19)
(1.23659 2.4799 3.94734e-19)
(0.760223 1.94482 -1.21664e-18)
(0.0194211 2.97979 -6.00331e-19)
(0.0348941 2.9982 0)
(-0.0346629 2.87581 0)
(-0.00370967 2.22294 -1.32395e-20)
(-0.00304141 2.24411 1.64903e-20)
(0.00218972 1.9889 -7.36337e-21)
(0.278224 1.39286 1.02697e-18)
(0.240201 0.555179 -7.03991e-19)
(0.0636909 1.99468 7.62725e-19)
(0.134841 1.88101 -9.10726e-19)
(0.179758 1.51162 9.52405e-20)
(0.00224288 3.11843 -1.72872e-18)
(0.0164874 3.11793 1.85311e-18)
(-0.00924646 2.981 7.69294e-19)
(-0.00363058 2.97726 -7.2526e-19)
(-0.0210256 2.88102 -7.83506e-19)
(0.00855655 3.09948 -2.06483e-18)
(0.00214025 3.10648 2.0153e-18)
(0.282308 0.691714 0)
(0.247465 0.679848 -1.18232e-18)
(0.0949842 0.222344 5.2482e-19)
(0.358338 0.938219 1.11784e-18)
(0.196274 0.276362 -1.72356e-18)
(1.19061 0.176579 6.30596e-20)
(1.20095 0.314039 0)
(1.17897 0.123802 -5.92402e-21)
(0.00178305 2.25091 -1.46753e-21)
(0.00516969 2.24199 0)
(0.0247082 1.98383 0)
(0.339408 1.30162 -3.68532e-19)
(0.37515 1.15052 -8.02286e-19)
(0.210981 0.379355 1.43132e-18)
(1.00588 -0.010822 0)
(1.00767 -0.00762975 5.09202e-19)
(-0.0332358 1.3392 0)
(-0.0448494 1.3421 0)
(1.00221 0.00351727 1.81277e-21)
(1.00366 0.00947421 1.03976e-18)
(-0.0197629 2.52808 1.18904e-20)
(-0.0245706 2.5706 0)
(0.0335742 3.17622 3.93242e-19)
(0.387275 3.47958 0)
(1.17931 0.669202 -5.65966e-20)
(1.01282 0.0131568 -2.13325e-21)
(1.02137 -0.0102587 0)
(1.0017 0.000138309 8.10284e-23)
(0.113241 1.37518 0)
(0.143099 2.56056 0)
(0.0358619 1.317 0)
(0.000917876 2.61247 2.7609e-20)
(-0.020174 2.57013 6.90428e-22)
(0.999674 0.0311138 2.51561e-21)
(1.06335 0.00494049 0)
(1.09802 0.0256387 0)
(-0.0319144 1.74718 0)
(-0.0181202 2.57182 0)
(-0.00406899 1.32847 0)
(0.311508 1.48824 -1.65409e-19)
(1.01131 -0.00960616 0)
(1.0094 -0.0149132 0)
(1.00237 0.000764465 6.50797e-19)
(1.00547 -0.00479279 -7.64868e-19)
(1.00118 -0.000964555 0)
(-0.0196674 1.47942 0)
(-0.00648117 1.39756 0)
(-0.0113472 1.43953 0)
(-0.0093608 1.31497 0)
(-0.0231965 1.30326 0)
(-0.0111788 1.28762 0)
(1.03511 -0.00599363 0)
(1.0198 0.0161876 -9.15687e-22)
(0.825603 1.28 2.61438e-19)
(1.00224 0.000330505 -6.48201e-19)
(1.00406 0.00526724 7.58975e-19)
(1.00118 0.00208039 0)
(1.0127 0.0103963 6.45278e-19)
(1.00797 0.00832256 -7.81815e-19)
(1.00855 0.0146877 0)
(-0.0235898 2.59917 0)
(-0.0260775 2.57836 -2.1969e-20)
(-0.0231 2.59267 1.5481e-20)
(1.23997 0.270458 5.83133e-19)
(1.16407 0.0880237 0)
(0.0398061 3.07866 -8.85986e-19)
(0.0646379 2.85751 -6.44511e-20)
(0.135989 3.19239 1.34499e-18)
(0.132002 3.21922 -1.87827e-19)
(0.131328 3.22896 0)
(0.0195536 3.13715 2.28468e-19)
(0.0733711 3.16019 8.7378e-19)
(0.066588 3.18464 -4.30808e-19)
(0.0219186 3.13012 0)
(0.552246 0.279404 0)
(0.48271 0.296685 0)
(1.15199 0.7057 1.27752e-19)
(1.14471 0.827755 -1.10366e-19)
(1.2073 0.591955 0)
(1.23436 0.52522 0)
(1.016 0.0134148 -1.20271e-18)
(1.01491 0.0143107 1.51002e-18)
(1.02543 -0.00978101 0)
(1.02349 -0.0118306 0)
(1.00643 0.00267032 0)
(1.01043 0.00377881 0)
(1.00458 0.00188264 0)
(1.00978 0.00627872 0)
(1.0078 0.00597249 0)
(1.0045 0.0047417 0)
(0.101949 1.37388 0)
(0.0989401 1.33508 0)
(0.132296 1.41048 0)
(0.149989 1.41436 0)
(0.145221 2.58566 0)
(0.184551 2.65625 -4.24096e-19)
(0.10165 2.64052 0)
(0.0853562 2.64362 1.99475e-19)
(0.0393202 2.66687 -1.49012e-19)
(0.0242326 1.33585 0)
(0.0338194 1.24965 0)
(0.0263521 1.34634 0)
(0.0471917 1.27055 0)
(0.00513655 1.97937 4.567e-21)
(-0.0190973 2.59779 -2.24179e-20)
(-0.00697745 2.65361 1.20998e-20)
(-0.0167909 2.67385 0)
(-0.0221516 2.60353 3.41256e-21)
(-0.0221659 2.59861 1.83931e-20)
(0.0138767 1.97722 2.03907e-22)
(-0.00666025 2.38375 3.00723e-20)
(-0.0120841 2.4073 -1.37243e-20)
(1.01181 0.0400414 1.21723e-18)
(1.00558 0.0212188 -1.51552e-18)
(1.004 0.0472855 -1.24019e-18)
(0.978783 0.0377466 1.56064e-18)
(1.06455 0.00873209 0)
(1.04964 -0.00810527 0)
(1.09513 0.0356682 0)
(1.07474 0.0133246 0)
(1.07257 0.00109847 0)
(1.14104 0.0847795 0)
(1.11264 0.0454995 0)
(1.11692 0.0331687 0)
(-0.0264538 2.42264 1.84238e-21)
(-0.0158832 2.01399 0)
(-0.0188273 2.21205 0)
(-0.0200838 2.59224 -1.33314e-20)
(-0.0171628 2.60234 2.79935e-22)
(0.00259108 1.5921 -4.42397e-20)
(-0.0102137 1.51975 4.51204e-20)
(-0.0177409 1.4096 0)
(-0.022258 1.4173 0)
(-0.0295272 1.41056 0)
(-0.00113206 1.3305 0)
(0.0165121 1.24284 0)
(0.388377 1.50561 2.68211e-19)
(0.431809 1.50616 1.43846e-19)
(0.596235 2.43613 -2.41081e-19)
(0.396689 2.53369 7.09259e-19)
(0.347935 2.04494 7.33894e-20)
(1.0211 -0.00808582 0)
(1.01552 -0.00972809 0)
(1.01493 -0.0154947 0)
(1.00741 -0.00104336 0)
(1.00493 -0.00089702 0)
(1.00779 -0.00466737 0)
(1.00928 -0.00357745 0)
(1.01424 -0.00433631 0)
(1.02052 0.0166799 1.17839e-18)
(1.01752 0.0158793 -1.51024e-18)
(1.02083 0.0189756 -1.18742e-18)
(1.01827 0.0175374 1.48865e-18)
(0.789033 1.33029 0)
(0.723858 1.38203 2.45509e-19)
(0.902086 1.2301 9.82104e-20)
(0.947837 1.17595 -1.30708e-19)
(1.1497 2.59154 2.90367e-19)
(0.763103 0.123776 6.03067e-19)
(1.16462 0.110912 0)
(1.21447 0.196969 -4.69468e-19)
(1.20203 0.157156 -2.0022e-20)
(1.00583 0.159344 0)
(0.125636 2.96073 5.12693e-19)
(0.10157 2.86642 -1.11783e-18)
(0.00923415 2.3771 7.45274e-19)
(0.108103 -0.178421 -3.01326e-19)
(0.332233 3.41008 -2.19207e-19)
(0.188294 3.30668 0)
(0.232152 3.3457 2.85488e-19)
(0.235659 3.03144 -1.72386e-18)
(0.327908 3.1878 0)
(0.00546131 3.12118 4.47297e-20)
(0.0152983 3.12984 -5.28788e-19)
(0.013717 3.1259 7.78257e-19)
(0.0341475 3.1401 0)
(0.03268 3.15 0)
(1.20367 2.58837 0)
(0.54925 0.79603 -5.27272e-19)
(1.07138 1.00069 -1.02933e-20)
(1.00739 1.08451 0)
(0.860776 0.979146 -1.10056e-19)
(1.09865 0.900969 2.78857e-20)
(0.2501 0.308587 -8.03867e-19)
(0.637957 0.325134 -1.51921e-20)
(0.523501 0.219724 4.06522e-19)
(0.501202 0.33491 2.90521e-20)
(0.38322 0.258909 -1.16323e-18)
(0.588614 0.325673 0)
(0.704061 0.431673 6.63983e-19)
(0.701666 0.431802 0)
(0.544359 0.339497 0)
(0.459333 0.235857 0)
(0.833105 0.633683 4.0802e-19)
(1.24144 0.292989 -4.90295e-19)
(1.24228 0.433023 0)
(1.25025 0.372982 0)
(0.670139 0.196153 6.23182e-19)
(0.877075 0.563908 -3.7206e-19)
(0.776164 0.542665 6.64422e-19)
(0.963274 0.453259 -7.35685e-19)
(1.01924 0.0150783 8.10015e-19)
(1.01754 0.0144177 -8.1367e-19)
(1.01574 0.0155193 0)
(1.03659 -0.0055335 0)
(1.02998 -0.00832682 -7.61836e-19)
(1.02803 -0.0119248 7.54266e-19)
(1.0249 0.0107004 0)
(1.0234 0.0144299 0)
(1.01143 0.00420765 0)
(1.01417 0.00922961 0)
(1.01519 0.00423898 0)
(1.0143 0.00294746 0)
(0.0730649 1.35722 0)
(0.0804698 1.30109 0)
(0.149423 1.39241 3.61256e-21)
(0.28251 1.48666 8.77041e-20)
(0.17724 1.45732 1.8411e-19)
(0.20929 1.46259 -3.00318e-19)
(0.178016 1.41842 0)
(0.136417 1.60002 -7.55722e-20)
(0.119833 1.58015 0)
(0.34361 1.99336 -1.06725e-19)
(0.340395 2.33012 6.17414e-19)
(0.196036 1.46852 6.58738e-20)
(0.270016 1.40383 2.14622e-20)
(0.203143 1.39714 -1.73277e-20)
(0.280016 1.34642 -1.09866e-19)
(0.243236 1.57839 0)
(0.269462 1.61467 1.17349e-19)
(0.031199 2.25099 -3.02029e-20)
(0.0442465 2.65581 0)
(0.0668854 2.3867 1.39539e-19)
(0.0637111 2.40707 0)
(0.069958 2.65715 -2.21051e-19)
(0.049695 2.68611 0)
(0.0310228 1.45478 3.47288e-20)
(0.0371122 1.50047 0)
(0.0354915 1.41913 0)
(0.0311068 1.42591 -3.91917e-20)
(0.00169936 2.63978 -1.63559e-20)
(0.0303937 2.68518 1.67437e-19)
(0.0112943 2.71055 1.17048e-21)
(0.00715724 1.84016 -8.42403e-21)
(-0.000151611 1.69516 -4.37843e-21)
(0.0207725 1.31156 0)
(0.0314286 1.22344 0)
(0.0460677 1.59799 -2.48399e-20)
(0.036403 1.48011 -3.11066e-20)
(0.0398963 1.54227 3.87704e-20)
(0.0413543 1.62111 0)
(-0.0295758 2.26389 1.05795e-19)
(-0.0305383 2.53885 -4.39267e-20)
(-0.0165034 2.43729 5.1415e-21)
(-0.000267073 1.8553 1.02089e-20)
(-0.0250859 2.48942 4.49588e-21)
(-0.0193942 2.43405 -6.39551e-21)
(1.01895 0.0223673 -8.07645e-19)
(1.01555 0.028738 8.10774e-19)
(1.01297 0.0184039 0)
(1.00905 0.0715959 1.13651e-18)
(0.991624 0.0621176 -1.26847e-18)
(0.950822 0.056045 1.41827e-18)
(1.01233 0.112128 -1.51244e-19)
(1.04304 -0.0055005 0)
(1.05151 -0.00105768 7.26529e-19)
(1.03935 -0.00967215 -7.28027e-19)
(1.07228 0.0433733 -4.32185e-20)
(1.06523 0.0244764 3.72658e-19)
(1.06321 0.057733 0)
(1.05411 0.0511034 -1.34082e-19)
(1.03215 0.0425326 0)
(1.02658 0.03857 0)
(1.0279 0.0138357 0)
(1.0239 0.0166743 0)
(1.04023 0.0333365 2.76105e-19)
(1.03891 0.0272442 -6.10357e-19)
(1.05146 0.03497 -2.9259e-19)
(1.04842 0.0350462 -3.22283e-19)
(1.07178 0.0661394 6.28994e-19)
(1.09739 0.053906 0)
(1.10695 0.098376 0)
(-0.02524 2.2684 5.97319e-20)
(-0.0255233 2.01956 1.70048e-21)
(-0.0215516 2.02672 0)
(-0.0266445 2.43674 -5.94431e-20)
(-0.0226438 2.39362 -3.46204e-21)
(-0.0331129 2.46314 6.44304e-21)
(-0.019878 2.61121 -1.61263e-20)
(-0.02275 2.5529 4.41619e-22)
(-0.0213648 2.50491 -4.84018e-21)
(-0.0152494 2.60519 1.28592e-20)
(-0.0201297 2.60718 -1.41362e-20)
(-0.00569919 1.52273 -9.319e-22)
(0.00290211 1.63813 -4.23307e-20)
(0.373415 1.45449 -1.12319e-19)
(0.373438 1.38639 4.42042e-20)
(0.66477 1.43168 -2.37458e-19)
(0.530631 1.4988 -1.41116e-19)
(0.588529 1.46489 0)
(0.592033 2.41326 2.0785e-19)
(0.660536 2.40902 3.3825e-19)
(0.410157 2.5026 8.80251e-20)
(0.40157 2.52682 -6.12942e-19)
(0.509059 2.46756 6.17818e-19)
(0.552015 2.44995 0)
(0.486472 2.50779 -5.60495e-19)
(0.247634 2.58001 1.14541e-18)
(0.353856 2.55197 -7.67761e-20)
(0.283009 2.64159 -1.58907e-18)
(0.946864 2.36619 7.30891e-19)
(0.836901 2.37146 0)
(1.01109 0.000562892 2.64028e-20)
(1.01538 -0.00533368 -2.1415e-20)
(1.0177 -0.00342987 -3.91132e-19)
(1.01507 -0.000793603 3.93276e-19)
(1.01249 0.00131144 0)
(0.652148 1.29487 0)
(0.67639 1.18906 0)
(0.790547 1.10854 0)
(0.66966 1.15179 0)
(1.18018 2.60505 6.03518e-20)
(1.06739 2.35118 0)
(0.830553 2.15611 3.95286e-21)
(0.821718 2.42146 0)
(0.920086 2.51585 -4.29697e-19)
(0.955022 2.47209 2.85827e-19)
(0.795656 0.183766 0)
(0.735864 0.157249 1.6346e-19)
(0.905024 0.153429 9.53167e-19)
(0.821252 0.155866 -3.56402e-19)
(0.773911 0.0902057 -1.1024e-18)
(1.08329 0.244301 -8.96917e-19)
(0.999742 0.308609 -1.80068e-20)
(0.926563 0.312665 8.62815e-19)
(1.00677 0.237882 7.25443e-19)
(0.947177 0.201954 -1.26079e-18)
(0.90802 0.206461 1.57705e-19)
(0.946478 0.273588 -3.3462e-19)
(0.924319 0.232564 0)
(0.995529 0.198544 6.21696e-19)
(1.04731 0.196987 0)
(1.04512 0.225688 0)
(1.10833 0.12293 2.91561e-19)
(1.07245 0.183236 -1.51942e-20)
(1.07672 0.244217 -1.58614e-19)
(1.10211 0.209864 0)
(1.02088 0.046945 6.22957e-19)
(1.04041 0.0601515 7.77163e-19)
(1.03365 0.0453543 -6.19072e-19)
(1.04247 0.068063 -5.21415e-19)
(1.01687 0.0764067 -8.00724e-19)
(0.983533 0.161709 0)
(0.988847 0.106719 0)
(0.96597 0.0771997 -5.04602e-19)
(0.903615 0.0980249 2.00826e-19)
(1.04042 0.10914 7.20207e-19)
(1.06973 0.126341 -8.40911e-19)
(1.07693 0.159057 7.50863e-19)
(1.03215 0.153745 0)
(1.07524 0.113644 0)
(1.05423 0.0943113 -3.44678e-19)
(1.04477 0.100077 -5.87686e-19)
(0.577474 1.0479 1.44544e-19)
(0.599962 1.37011 -4.64769e-20)
(1.15078 2.72274 -2.34681e-19)
(1.2157 3.0649 3.78299e-21)
(1.24155 2.70402 -1.33805e-19)
(1.26918 2.68673 -2.58984e-20)
(1.1953 2.32543 -1.13636e-20)
(1.20345 2.96837 -1.00299e-19)
(1.22405 2.93391 2.44888e-19)
(1.20539 3.21688 -1.3931e-19)
(1.36417 2.94636 1.92403e-19)
(1.35168 2.86385 0)
(0.573272 0.806863 -5.10078e-20)
(0.0942226 1.2144 5.59451e-19)
(0.563803 0.313827 5.31168e-19)
(0.396594 0.0592192 5.66903e-19)
(0.436762 0.306021 6.60178e-19)
(0.536443 0.426262 -1.07352e-18)
(0.539745 0.42068 8.78206e-19)
(0.433946 0.278478 -3.31374e-19)
(0.276322 0.204668 7.45162e-19)
(0.699671 0.271743 -3.60412e-19)
(0.654414 0.293539 0)
(0.584741 0.20923 6.22172e-21)
(0.74053 0.516274 3.59611e-19)
(0.723416 0.487027 -1.30708e-18)
(0.617316 0.448927 8.85966e-21)
(0.607663 0.439281 0)
(0.69898 0.72129 3.97393e-19)
(0.861497 0.785356 3.93436e-19)
(0.78653 0.869216 -4.60579e-19)
(0.907066 0.822303 -1.53612e-19)
(0.938733 0.867792 -3.70233e-20)
(0.945767 0.867558 3.79135e-20)
(0.872099 0.667606 -6.76109e-19)
(0.951958 0.71986 1.42613e-19)
(1.01269 0.734594 0)
(1.00322 0.710744 -1.92681e-19)
(1.0297 0.349588 2.12386e-19)
(1.15159 0.309873 2.88721e-19)
(1.07132 0.282016 3.66557e-19)
(1.02048 0.382582 -4.31989e-19)
(1.06994 0.445041 0)
(1.12618 0.424903 0)
(0.920848 0.385417 1.28189e-21)
(0.835132 0.31983 0)
(0.885964 0.319159 4.07202e-19)
(0.909774 0.32089 -8.35128e-21)
(0.958323 0.457067 2.04914e-18)
(0.920104 0.51324 5.26009e-19)
(0.923945 0.479634 -5.61368e-19)
(0.837559 0.468895 6.03387e-19)
(0.820306 0.463216 3.61877e-19)
(0.788001 0.445199 -3.55151e-19)
(1.02744 -0.000136603 6.51662e-19)
(1.02007 0.000159497 0)
(1.01858 0.00108254 4.24916e-19)
(1.02181 -0.00143952 -9.62578e-19)
(1.0224 0.00463033 4.67623e-19)
(1.02033 0.0116807 -9.79251e-19)
(1.02122 0.0110805 0)
(1.02044 0.0113152 -2.04093e-19)
(1.01595 0.00793895 5.12005e-19)
(1.01658 0.010757 -2.5554e-19)
(1.01729 0.0101177 1.88132e-19)
(0.0371608 1.33372 0)
(0.0438572 1.39043 0)
(0.0534775 1.33372 0)
(0.0610055 1.27804 0)
(0.0762161 1.40708 -3.99328e-20)
(0.0866774 1.37277 1.88782e-20)
(0.114932 1.55043 -1.72062e-20)
(0.108438 1.39608 -2.55681e-21)
(0.0417136 1.4851 1.60183e-20)
(0.0453399 1.47879 -1.23232e-20)
(0.0692864 1.39482 -1.12071e-20)
(0.0618974 1.39553 4.14037e-20)
(0.056449 1.37286 6.21227e-21)
(0.0470409 1.39674 3.38628e-21)
(0.10753 2.35404 -1.54213e-19)
(0.0962651 2.4031 0)
(0.169218 2.02887 1.10628e-19)
(0.114601 1.70198 4.19967e-20)
(0.234583 2.0273 -9.15187e-20)
(0.198711 2.41609 0)
(0.261427 2.3661 -6.12249e-19)
(0.301408 2.36384 4.32455e-19)
(0.228272 1.98668 -2.55027e-19)
(0.154864 2.14459 1.72229e-19)
(0.141289 2.25012 0)
(0.0193376 1.87541 3.36075e-21)
(0.00184155 2.3785 -3.39372e-20)
(0.00707284 2.13717 0)
(0.0121666 2.44292 -1.36347e-20)
(0.0299412 2.28569 1.00416e-20)
(0.0194346 1.43376 -7.83006e-21)
(0.0186209 1.41624 1.33928e-19)
(0.0165177 1.42531 -4.45367e-20)
(0.0241026 1.43128 -3.69087e-20)
(0.0291375 1.45871 0)
(0.0122216 1.40979 0)
(0.00586089 1.31112 -6.12227e-20)
(0.00925337 1.40327 1.76965e-20)
(0.0146525 1.40074 0)
(0.0144936 1.30111 -4.4734e-20)
(0.0280188 1.21342 9.18857e-20)
(1.04087 0.0121663 0)
(1.04712 0.00844702 -6.81829e-20)
(1.03893 0.022724 -4.91806e-19)
(1.04863 0.021405 0)
(1.05248 0.0211889 0)
(1.03656 0.0124348 -6.81923e-21)
(1.03123 0.0122802 7.90469e-19)
(1.03176 0.0173312 9.58625e-19)
(1.02555 0.0212778 0)
(1.02251 0.0218666 0)
(1.0354 0.0263167 4.90636e-19)
(1.0259 0.0280982 0)
(1.02403 0.027718 0)
(-0.0168086 2.02205 0)
(-0.000200889 1.66554 -3.83519e-21)
(-0.00435891 1.76783 -3.17166e-20)
(0.000913452 1.41123 0)
(-0.00409485 1.57371 -2.36103e-20)
(-0.00988233 1.48861 1.4865e-20)
(-0.00667384 1.43032 0)
(0.387178 1.63214 0)
(0.376216 1.31189 -8.5432e-20)
(0.299645 1.33998 0)
(0.427349 1.31039 2.21874e-20)
(0.479243 1.47631 0)
(0.459348 1.42018 1.89096e-20)
(1.03512 2.66735 -1.54735e-20)
(0.967027 2.39469 -9.18328e-19)
(0.919538 2.18297 1.02733e-18)
(0.850986 2.36322 2.43482e-19)
(0.846446 2.47599 0)
(0.916093 2.47245 0)
(0.930212 2.35943 0)
(0.909245 2.34894 -9.49947e-19)
(0.684712 2.43946 -4.00671e-19)
(0.79852 2.42888 -9.90197e-20)
(0.808546 2.4032 7.52385e-20)
(0.69409 2.38202 0)
(0.79945 2.37709 0)
(0.757465 2.39073 -3.70195e-19)
(0.766152 2.4658 0)
(0.638235 1.09624 0)
(0.478617 0.891592 -5.28331e-19)
(0.575534 0.943578 -3.33278e-20)
(0.517043 1.02598 0)
(0.517356 0.965636 7.89655e-19)
(0.80695 0.891421 -1.30294e-19)
(0.815005 1.02587 0)
(0.79051 0.992787 1.86071e-19)
(0.675683 1.0367 0)
(0.676293 0.940129 0)
(1.1603 2.74539 -2.34351e-19)
(1.13766 2.80919 -1.01811e-19)
(0.925676 2.32228 1.08829e-19)
(0.893865 2.30165 -8.54458e-20)
(1.12608 2.71786 0)
(1.08038 2.68723 1.02772e-19)
(1.08481 2.46949 -3.15388e-19)
(0.978893 2.22215 -2.96799e-20)
(0.488978 1.32187 0)
(0.505591 1.05534 -1.27356e-19)
(0.580575 1.16962 0)
(0.848566 0.251462 0)
(0.75611 0.200481 0)
(0.661849 0.154979 0)
(0.839552 0.252348 -6.33046e-19)
(0.726381 0.245515 3.75278e-19)
(0.922094 0.0913591 -4.13765e-19)
(0.924208 0.133392 0)
(0.91259 0.142214 1.78816e-19)
(0.848615 0.118004 7.14919e-19)
(0.81228 0.0789731 -4.47934e-19)
(1.14997 3.34121 -7.09552e-19)
(1.19955 3.26115 0)
(1.14759 3.37062 -1.48056e-18)
(0.636736 3.533 1.25407e-18)
(0.855937 3.10372 6.67447e-20)
(0.524547 0.779246 6.09746e-19)
(0.419325 0.77659 0)
(0.290215 0.332357 -1.47547e-19)
(0.483716 0.651839 8.55542e-19)
(0.573719 0.324487 -1.89484e-19)
(0.512384 0.46328 2.27113e-19)
(0.671395 0.519023 4.84024e-19)
(0.719906 0.560703 0)
(0.669549 0.572328 0)
(0.636286 0.529282 0)
(1.01229 0.620974 8.7994e-20)
(0.925469 0.562601 -5.12329e-19)
(0.951419 0.593719 3.85795e-19)
(0.980231 0.533428 -3.97367e-19)
(1.08979 0.500026 0)
(1.09883 0.591855 -9.65214e-20)
(0.856144 0.418724 -8.33452e-19)
(0.854337 0.407542 -1.03239e-18)
(0.783038 0.399488 6.31991e-19)
(0.792188 0.38794 -6.42131e-19)
(0.841835 0.344417 -5.21762e-19)
(0.786878 0.340242 6.37729e-19)
(1.02679 0.00620228 -4.98102e-19)
(1.02648 0.00643689 1.0141e-18)
(1.02957 0.000344418 6.31531e-19)
(1.03376 0.00123821 -7.60655e-19)
(1.03397 0.00939838 0)
(1.03023 0.0100845 -1.23762e-18)
(0.0642146 1.63836 1.9691e-20)
(0.0530833 1.59181 0)
(0.0913718 1.68721 1.34109e-19)
(0.098568 1.66848 -1.19046e-19)
(0.0927357 1.5517 3.07827e-20)
(0.092019 1.55364 0)
(0.0142483 1.6978 0)
(-0.000828108 1.51747 1.04934e-20)
(0.000141305 1.46442 -9.42999e-21)
(-0.00622125 1.56993 5.57018e-21)
(0.00349382 1.88684 1.53369e-20)
(-0.00840832 1.94038 -3.63651e-21)
(0.495992 1.35165 -2.88398e-19)
(0.489894 1.35068 3.17029e-19)
(0.455165 1.3061 -3.93896e-20)
(0.436539 1.28078 8.26908e-21)
(0.644478 1.31376 0)
(0.558471 1.40464 9.97192e-20)
(0.575099 1.41126 -9.70822e-20)
(0.469639 1.29975 3.84934e-20)
(0.525583 1.2451 0)
(0.576696 1.20703 0)
(0.651757 2.39917 5.88613e-19)
(0.668015 2.44072 1.26747e-18)
(0.712207 2.45149 -8.73467e-19)
(0.608363 2.42532 -2.02638e-19)
(0.558673 2.51507 2.86061e-19)
(0.508236 2.49016 -7.62389e-19)
(0.975915 2.36625 -5.75299e-19)
(1.00894 2.37819 0)
(0.922378 2.16083 -6.59106e-19)
(1.05176 2.66608 0)
(1.05415 2.65261 0)
(0.589543 2.24934 -1.4107e-19)
(1.03146 3.14845 1.16334e-19)
(0.903076 3.01961 -1.82911e-20)
(0.25351 0.817441 0)
(0.274692 0.654333 -3.18427e-19)
(0.449574 0.615676 -3.22631e-19)
(0.37091 1.99283 0)
(0.457297 2.77594 -4.64669e-20)
(0.409184 2.53836 0)
(0.725451 0.671382 -8.38477e-19)
(0.809172 0.694777 1.11666e-18)
(0.828487 0.634501 -1.10294e-18)
(0.700851 0.636979 -1.06935e-19)
(0.754112 0.596715 -4.37211e-19)
(0.996328 2.74584 -8.84866e-20)
(1.03927 2.81065 -1.75071e-19)
(0.625289 2.10766 7.28822e-19)
(0.576142 1.67645 -5.18224e-19)
(0.68955 1.88103 -4.19412e-19)
(0.983243 2.43079 -1.13625e-19)
(0.991249 2.42468 3.05811e-19)
(0.641354 1.81198 2.90937e-20)
(0.434691 1.29965 1.48363e-19)
)
;

boundaryField
{
    wall-4
    {
        type            noSlip;
    }
    velocity-inlet-5
    {
        type            fixedValue;
        value           uniform (1 0 0);
    }
    velocity-inlet-6
    {
        type            fixedValue;
        value           uniform (0 3 0);
    }
    pressure-outlet-7
    {
        type            zeroGradient;
    }
    wall-8
    {
        type            noSlip;
    }
    frontAndBackPlanes
    {
        type            empty;
    }
}


// ************************************************************************* //
