/*--------------------------------*- C++ -*----------------------------------*\
| =========                 |                                                 |
| \\      /  F ield         | OpenFOAM: The Open Source CFD Toolbox           |
|  \\    /   O peration     | Version:  2206                                  |
|   \\  /    A nd           | Website:  www.openfoam.com                      |
|    \\/     M anipulation  |                                                 |
\*---------------------------------------------------------------------------*/
FoamFile
{
    version     2.0;
    format      ascii;
    arch        "LSB;label=32;scalar=64";
    class       volScalarField;
    location    "85";
    object      p;
}
// * * * * * * * * * * * * * * * * * * * * * * * * * * * * * * * * * * * * * //

dimensions      [0 2 -2 0 0 0 0];

internalField   nonuniform List<scalar> 
918
(
0.558091
1.17035
0.000910435
0.557561
-0.0127269
1.13732
-0.514131
0.650607
0.538302
-0.10682
-0.0578601
0.540289
0.998152
0.763651
-1.12462
-0.0142436
0.652035
-0.382808
0.537434
-0.0723585
0.6735
0.544832
0.547855
0.538432
0.5976
0.73517
0.879476
0.0304322
0.0120958
0.00710428
-0.0122546
-0.0392049
-0.0340289
1.02097
1.07206
1.09477
0.506008
0.334425
-0.379771
-0.453814
-0.439598
-0.538776
0.652531
0.654341
-0.21783
0.651741
0.649404
0.5253
0.537672
0.538587
0.539593
0.538585
0.539962
0.402147
-0.107969
-0.139185
-0.0877371
-0.0808205
0.048117
-0.056563
-0.0572257
-0.0569891
-0.0590341
0.45506
0.534787
0.531408
0.544508
0.553778
1.1099
1.08183
1.10797
1.02166
1.03812
0.976128
0.948771
0.784325
0.806558
0.749258
0.734681
-1.55305
-2.49805
-0.538121
-0.289255
-0.0107649
-0.0125735
-0.00730636
0.64937
0.650536
0.652175
0.653924
1.07811
-0.379988
-0.482685
0.53758
0.536391
0.544696
0.545398
0.541419
0.540509
-0.0639786
-0.0614458
-0.0590713
-0.0670618
-0.0639905
0.64591
0.652407
0.538958
0.535958
0.561551
0.582199
0.571933
0.277557
0.608412
0.624542
0.57168
0.729132
0.722902
0.73177
0.853121
0.817317
0.916291
0.939446
0.0186896
-0.000384503
-0.0184724
-0.0215164
-0.0207962
0.501834
0.494366
0.522267
0.509449
0.511959
0.251792
0.119269
0.418975
0.443552
-0.299486
-0.36793
-0.431903
-0.461757
-0.569447
0.614645
0.65499
0.652314
-0.226984
-0.155118
-0.289963
-0.0817481
-0.145138
0.515544
0.522573
0.517563
0.533141
0.527602
0.529568
0.541951
0.539019
0.54058
0.464192
0.58757
0.32843
0.292719
-0.243755
-0.154743
-0.242755
-0.0704519
-0.0679364
0.0625496
0.0885048
0.0345851
0.022642
-0.0638343
-0.0594041
-0.0613473
-0.0587019
-0.0595236
0.447763
0.436467
0.46778
0.475357
0.5215
0.522933
0.527313
0.525403
0.899548
0.921978
0.929495
0.903141
-3.48093
-6.25049
0.0328205
0.168056
-0.00703331
-0.00989005
0.00184407
-0.00637195
-0.00037416
-0.00227005
-0.0130954
-0.0143785
-0.00890253
-0.00788738
0.644337
0.645006
1.0011
1.00913
0.975834
0.92896
0.525866
0.5279
0.533369
0.52927
-0.0602079
-0.0604118
-0.0599931
0.649353
0.648167
0.649082
0.238796
0.148425
0.328901
0.358258
0.637931
0.627246
0.636247
0.632319
0.668746
0.946889
0.965076
0.963278
0.97157
1.01555
1.0319
0.99736
0.481214
0.491231
0.48616
0.525081
0.523001
0.523837
0.52032
0.521292
0.519478
-0.0304697
-0.408527
0.490774
0.506778
0.493164
0.494665
0.694827
0.773541
0.653485
0.654173
0.653957
-0.0116467
-0.0702232
0.24768
0.213212
0.386934
0.423567
0.402382
0.870911
0.83086
0.881137
0.854353
0.815585
0.841847
-0.360243
-1.85259
-0.975666
0.515011
0.330925
0.417741
0.00423017
-0.012642
-0.00797181
1.00187
1.07318
0.643325
0.818792
0.82084
0.702509
0.730898
0.791675
0.718155
0.752554
0.785554
0.762919
0.570248
0.503993
0.520801
0.842326
0.897754
0.117678
0.0549664
0.0112646
0.107788
0.165708
0.139451
1.0329
0.950949
1.02063
0.535721
0.536447
-0.00780142
-0.0222319
0.540714
0.540772
-0.0142135
-0.00408139
0.400155
-0.832116
0.0949693
0.529334
0.519151
0.53632
-0.0925921
0.353524
-0.0568885
0.0440334
-0.0141784
0.53064
0.466219
0.425209
-0.0027118
-0.0238751
-0.0628559
-0.213241
0.533391
0.531695
0.535787
0.536722
0.537407
-0.0219246
-0.0180021
-0.0120051
-0.0572418
-0.0479748
-0.0632132
0.500177
0.519344
-0.171896
0.535938
0.538077
0.537894
0.531184
0.536799
0.535061
-0.0143928
-0.0184814
-0.0211878
0.218323
0.35172
0.636296
0.720222
0.610069
0.387718
0.154575
0.541546
0.6034
0.510854
0.662368
0.650173
0.64739
0.160356
0.00948755
0.169911
0.111796
0.527193
0.525938
0.517401
0.514354
0.531187
0.529298
0.533864
0.530897
0.533849
0.535224
-0.0491187
-0.07502
-0.0849214
-0.151715
0.308262
0.569012
0.253379
0.28254
0.138994
-0.0522573
-0.0539285
-0.0542606
-0.0609112
-0.00264776
-0.0299698
0.0383337
0.0380638
0.00869449
-0.0167814
-0.0134292
-0.0249697
-0.0182054
0.523899
0.523788
0.528696
0.537293
0.47591
0.479693
0.444385
0.465264
0.450404
0.388792
0.424487
0.399547
-0.00843146
-0.000875575
-0.00492575
-0.0225116
-0.0191901
-0.0390681
-0.0358651
-0.0313736
-0.0274107
-0.0341213
-0.0562196
-0.0612797
-0.170914
-0.287073
0.987791
0.907011
0.139537
0.522528
0.528994
0.52575
0.530695
0.533825
0.534617
0.532318
0.528861
0.519652
0.521326
0.517853
0.518778
-0.102385
-0.244971
-0.0732495
-0.149211
0.147114
0.629067
0.363617
0.298414
0.293967
0.523763
0.905837
0.68714
0.651998
0.638914
-0.346821
0.0385262
-0.284481
0.327357
0.15855
0.638334
0.685534
0.704923
0.654804
0.608961
-0.0971
0.55659
-0.077599
-0.024528
0.178095
0.0520305
0.640261
0.639139
0.64544
0.639345
0.648429
0.641207
0.62115
0.623133
0.639152
0.646141
0.479396
0.248956
0.199093
0.160625
0.644267
0.513134
0.561628
0.488619
0.522442
0.525033
0.523702
0.505012
0.512608
0.508123
0.514697
0.518264
0.526895
0.527383
0.522623
0.524754
-0.0556516
-0.0614152
-0.0257259
-0.135563
-0.128381
-0.190724
-0.0597789
0.0752075
0.0365974
0.237134
0.340406
0.0521583
-0.056926
-0.0298128
0.0136563
0.180179
0.208957
0.0729518
0.159481
0.152228
0.132674
0.235648
0.238422
-0.0334644
-0.0342762
-0.0384508
-0.0420773
0.0153099
0.0872159
0.0963418
-0.0139017
-0.01787
-0.0526053
-0.0559356
-0.02427
-0.0292468
-0.0249404
0.00321545
-0.0568444
-0.0247577
-0.0112542
-0.0137041
-0.0123029
-0.0175952
0.51859
0.520348
0.520567
0.529621
0.541743
0.556412
0.522049
0.498185
0.488941
0.491945
0.464861
0.475183
0.471019
0.484654
0.505959
0.514464
0.512764
0.515572
0.497957
0.499671
0.48615
0.489826
0.464893
0.445444
0.433367
-0.0467841
-0.00836187
-0.0169565
-0.0417205
-0.0120292
-0.0238237
-0.0167498
0.00274088
-0.0144773
-0.0149411
-0.0251315
-0.0324923
-0.0320697
-0.0726296
0.0146389
-0.185226
-0.219872
-0.29358
0.890305
1.01456
0.808665
0.581537
0.602876
0.846361
0.930047
0.541336
0.734313
0.757129
0.589187
0.856348
0.527384
0.526976
0.524575
0.524051
0.525273
-0.00612331
0.101265
0.0970259
0.162346
0.278925
0.389779
0.323293
0.197616
0.326917
0.329083
0.621436
0.633329
0.58968
0.613876
0.614827
0.425436
0.5011
0.552764
0.513951
0.566434
0.588273
0.54191
0.575418
0.524156
0.479366
0.475471
0.425131
0.444666
0.420106
0.403295
0.517981
0.494573
0.505525
0.495665
0.517799
0.544073
0.541119
0.563705
0.578759
0.498466
0.453558
0.462841
0.493054
0.454686
0.470172
0.485972
0.236324
0.139144
0.221862
-0.0621288
0.0057301
-0.00569844
-0.0549513
-0.00207775
0.28172
-0.407387
-0.38476
-1.0094
0.507369
0.946433
0.561201
0.541803
0.648654
0.638135
0.643397
0.659541
0.652164
0.632727
0.640445
0.645635
0.58916
0.610105
0.625048
0.621789
0.524166
0.379081
0.379397
0.326271
0.196385
0.23686
0.432067
0.356632
0.281856
0.281909
0.456548
0.342552
0.413403
0.445766
0.376654
0.331306
0.535047
0.601236
0.594371
0.568123
0.476911
0.488266
0.513356
0.547025
0.570139
0.604618
0.514112
0.520074
0.521303
0.518773
0.516034
0.519136
0.519395
0.521983
0.522594
0.525617
0.524688
-0.0530999
-0.0397635
-0.0502033
-0.0616565
-0.0180961
-0.0206265
0.0227045
0.0104807
-0.0168699
-0.012317
-0.033283
-0.0372965
-0.0345421
-0.0273093
0.102477
0.114948
0.0994837
0.0598644
0.251152
0.380502
0.455075
0.329805
0.224597
0.248649
0.266827
-0.0143586
0.0102551
-0.00229739
0.0376001
0.0302185
-0.0440765
-0.0485363
-0.0451013
-0.0355974
-0.027473
-0.0475152
-0.0568631
-0.046414
-0.050243
-0.0544727
-0.0602133
0.500468
0.493961
0.495557
0.48952
0.488228
0.502407
0.506707
0.508707
0.514208
0.516454
0.506558
0.511976
0.51591
-0.0185421
-0.0415444
-0.044455
-0.0398326
-0.0394058
-0.0370107
-0.0390684
0.125237
0.0567769
0.0601835
0.0128715
-0.120513
-0.0622768
0.494076
0.492581
0.480938
0.72282
0.572073
0.493326
0.590371
0.696068
0.278428
0.474235
0.310109
0.888997
0.786433
0.932481
0.543142
0.249019
0.41593
0.455255
0.270963
0.348583
0.323517
0.213263
0.243573
0.283963
0.381542
0.268552
0.246485
0.00291335
0.19369
0.303953
0.286064
0.409295
0.469239
0.270558
0.189849
0.144663
0.605885
0.625166
0.638497
0.610892
0.633618
0.582465
0.574412
0.589825
0.598033
0.591617
-0.738216
-0.444248
-1.39233
-0.719125
-0.261493
0.537835
0.513554
0.771543
0.642592
0.668621
0.653022
0.615806
0.587368
0.613357
0.633159
0.337624
0.448483
0.423293
0.429982
0.332846
0.262419
0.562118
0.559909
0.592935
0.617076
0.588522
0.619159
0.511914
0.511634
0.511097
0.50734
0.505608
0.507946
0.0578964
0.0252644
0.0667651
0.0492123
0.0269262
0.0150096
-0.0205475
-0.0308741
-0.0373518
-0.0355531
-0.0208304
-0.0171238
0.175273
0.111642
0.0318562
0.0604374
-0.00072981
-0.0692527
-0.0890185
0.0177463
0.114111
0.104249
0.406783
0.655234
0.475458
0.642821
0.486035
0.541674
0.469045
0.459876
0.484278
0.381715
0.462253
0.259727
-0.249819
-0.159555
0.797705
0.807421
0.581769
0.4106
0.176638
0.350283
0.538733
0.467491
0.502365
0.570907
0.557223
0.0369334
0.0915719
0.387441
0.614119
0.24499
0.235673
0.229133
0.416271
0.332892
)
;

boundaryField
{
    wall-4
    {
        type            zeroGradient;
    }
    velocity-inlet-5
    {
        type            zeroGradient;
    }
    velocity-inlet-6
    {
        type            zeroGradient;
    }
    pressure-outlet-7
    {
        type            fixedValue;
        value           uniform 0;
    }
    wall-8
    {
        type            zeroGradient;
    }
    frontAndBackPlanes
    {
        type            empty;
    }
}


// ************************************************************************* //
