/*--------------------------------*- C++ -*----------------------------------*\
| =========                 |                                                 |
| \\      /  F ield         | OpenFOAM: The Open Source CFD Toolbox           |
|  \\    /   O peration     | Version:  2206                                  |
|   \\  /    A nd           | Website:  www.openfoam.com                      |
|    \\/     M anipulation  |                                                 |
\*---------------------------------------------------------------------------*/
FoamFile
{
    version     2.0;
    format      ascii;
    arch        "LSB;label=32;scalar=64";
    class       surfaceScalarField;
    location    "85";
    object      phi;
}
// * * * * * * * * * * * * * * * * * * * * * * * * * * * * * * * * * * * * * //

dimensions      [0 3 -1 0 0 0 0];

oriented        oriented;

internalField   nonuniform List<scalar> 
1300
(
3.75095
5.62643
-3.2956
3.75095
-7.75127
5.62643
-4.40735
4.40735
-0.332137
0.332137
1.87639
1.87457
-2.69198
2.69198
-2.02473
2.02473
-2.52183
2.52183
-5.24643
5.24643
-5.06855
5.06855
4.65014
-4.65014
-6.31319
6.31319
-0.937305
0.937305
-3.6902
3.6902
3.16958
-3.16958
-1.95349
1.95349
0.0981611
-0.0981611
-0.553467
4.30442
3.19749
3.19749
-2.00745
2.00745
-4.87016
4.87016
6.21803
-6.21803
5.27416
-5.27416
-1.97856
-2.48745
1.80293
-11.4663
-5.94834
-5.94834
-8.44038
8.44038
-2.81395
2.81248
2.94645
-2.94645
-1.76654
1.76654
-4.37179
-0.0355561
-4.37179
4.37542
0.0319317
4.37542
-0.445849
0.113712
-0.445849
4.01547
-4.01547
0.222292
0.109845
0.222292
3.0654
-3.0654
-1.87712
3.75351
1.87383
-1.8719
6.17632
-1.87905
3.75362
-6.01369
6.01369
-2.93713
0.245155
-2.93713
2.47997
0.212009
2.47997
-6.85201
6.85201
-2.08349
0.0587573
-2.08349
1.97204
0.0526876
1.97204
2.88215
-2.88215
-2.62792
0.106092
-2.62792
2.39284
0.128986
2.39284
0.353513
5.27292
-5.97994
8.79242
-5.27292
0.026484
5.20837
0.0380666
5.20837
-5.10588
0.0373285
-5.10588
5.01347
0.0550768
5.01347
4.73307
-0.082931
4.73307
-4.76958
0.119442
-4.76958
-3.36694
-4.05511
-6.46457
0.151384
-6.46457
-1.02636
0.0890587
-1.02636
0.825143
0.112162
0.825143
-3.68841
3.68841
-4.11257
0.422368
-4.11257
3.12397
0.0456125
3.12397
1.86849
1.88247
5.61944
-5.61944
2.44986
-1.91014
-0.043353
-1.91014
-2.03978
-3.23438
2.03978
-0.0862873
-0.131602
0.229763
-0.131602
3.15945
0.0380317
3.15945
2.2358
0.157047
-2.2358
0.228349
3.28092
-3.28092
1.33511
0.672334
1.33511
-5.56425
5.56425
4.95668
0.0567952
-4.95668
0.0865181
6.15605
0.0619763
6.15605
-6.19952
-0.0185013
-6.19952
2.52536
-5.01281
-2.6503
6.13049
0.182698
-6.13049
0.182154
2.91844
0.0280132
2.91844
-2.91807
2.91807
-2.98486
0.0384138
-2.98486
-2.16498
0.398435
-2.16498
1.46873
0.297814
1.46873
-4.27519
-0.096606
-4.27519
-4.26355
0.150986
4.26355
0.111866
1.13144
-1.13144
-0.580049
0.134201
-0.580049
-4.14053
-0.134659
4.14053
-0.125058
-3.90289
-0.112582
-3.90289
-3.02463
0.0397681
3.02463
0.0407704
3.11291
0.0465412
-3.11291
0.0475095
-1.87081
3.75328
-1.88014
3.75397
-5.63439
-0.379297
-5.63439
6.32466
-0.310975
6.32466
3.3308
0.3594
-3.3308
0.393664
2.30868
0.171287
2.30868
-6.81314
-0.0388651
-6.81314
6.83792
0.0140873
6.83792
2.1774
0.131281
-2.1774
0.0939125
1.93236
0.0396797
1.93236
2.90283
-0.0206817
2.90283
-2.87601
-0.0061415
-2.87601
2.79024
-2.79024
2.71513
0.0751093
-2.71513
0.08721
-11.133
11.1145
-0.0351954
-11.0978
5.17317
5.17317
4.15798
0.575092
4.15798
-4.98837
0.218789
-4.98837
2.69248
-5.34279
3.10347
-6.47041
4.65873
-16.125
4.2847
-8.3398
6.70521
-6.70521
6.59385
0.111356
-6.59385
0.129278
-1.14518
0.118817
-1.14518
-3.08768
-0.600732
-3.08768
4.32902
-0.640615
4.32902
-3.02793
3.02793
-3.07738
0.0494524
3.07738
0.0465863
1.90503
0.0273373
-1.90503
-0.00511302
0.155101
0.067191
-0.155101
0.0234987
3.4964
-0.215477
3.4964
-3.08133
-0.199589
-3.08133
-1.2448
0.0996241
1.2448
0.090308
-5.81427
0.250021
-5.81427
-11.1908
0.092963
-11.1527
-6.10656
-6.10656
2.33382
11.1262
-2.89384
0.0178326
2.89384
0.024594
2.97449
0.0534356
-2.97449
0.0564257
-2.85727
0.0670292
2.85727
0.0607965
-2.5395
0.374521
-2.5395
-1.0698
1.0698
-1.23332
0.163525
1.23332
0.235406
1.40523
-0.27379
1.40523
0.706634
0.118509
-0.706634
0.126585
-3.80016
-0.102731
-3.80016
6.56039
-0.235727
6.56039
-2.96542
-0.115914
2.96542
-0.0625854
-0.0333309
11.1479
-5.13984
0.0339628
5.13984
-11.2098
11.2438
-3.20924
0.669743
3.20924
0.948736
5.28291
0.28133
-5.28291
0.294543
6.78891
0.0490132
-6.78891
0.0836974
-2.59544
-0.492233
-2.59544
-5.05336
-0.581033
5.05336
-0.724334
-11.4748
-0.203224
11.678
-11.4197
6.01749
0.13856
-6.01749
11.3824
-1.02988
-0.101559
1.02988
0.0399155
1.73344
-0.328208
1.73344
3.69541
-0.199009
-3.69541
-0.104747
-6.71527
-0.0978673
6.71527
-0.154882
-2.15058
-0.444863
2.15058
-0.41714
-4.26713
4.30517
1.90919
-2.37627
-2.63653
-5.61066
1.85184
1.90144
4.3017
-10.123
-6.00207
-9.94082
7.26054
-6.966
-9.23383
9.1509
7.91326
-8.02584
-5.78466
5.83125
6.48299
-6.44222
1.87884
1.87466
8.03336
-7.78821
-15.5758
15.1966
7.57577
-7.51701
15.7293
-15.7682
-17.8107
17.8597
-5.70751
5.8136
-6.74095
6.73481
-6.9773
6.91472
-2.83123
-3.63918
13.0838
-12.9324
8.63011
-8.67347
-8.63356
9.05593
3.38261
0.922558
3.42915
-1.88213
3.76097
-1.87149
3.78068
2.75034
-5.58157
2.59245
-5.22898
4.3928
4.23731
-4.30651
-1.30414
-5.925
5.95301
-5.81385
5.87464
9.16121
-9.19677
-1.88518
3.75984
-1.86879
3.77023
-3.42499
-2.35967
3.37938
0.922325
8.05018
5.03365
-8.23288
-1.70794
-8.05044
7.85143
-8.23564
8.03606
-0.432484
5.81913
-5.38664
4.43767
-1.56406
7.38319
5.69649
5.91528
5.86602
-5.58469
1.09998
-6.48662
-6.4001
-2.20224
2.33644
2.10333
-1.99349
6.16237
1.75089
6.03731
-5.77196
-2.25389
-5.87469
3.8204
2.01085
3.86985
4.07856
2.40443
4.11833
3.03039
-3.03601
0.00561875
-3.05671
6.08711
0.723829
-5.41639
-4.49406
4.98162
3.05174
5.19363
-5.56324
-2.22497
-5.16958
-9.5229
-6.05295
-10.1039
10.0649
5.13163
9.75394
-11.9336
11.7787
4.8117
2.76407
4.86439
-4.95694
-2.56007
-4.86303
11.6313
-2.6452
-8.98608
-10.2976
-7.51312
10.2835
5.44581
10.9394
6.92035
11.0231
4.41728
7.214
-9.86309
2.34997
-3.86801
-1.8395
-3.7808
3.67599
2.13761
3.80498
-4.21768
-2.52326
-4.19985
-4.29601
-2.68129
4.31669
2.41812
-4.4185
-3.81715
4.53441
2.38031
4.03728
-10.0393
4.30253
-7.9417
-9.17588
-3.75657
-9.0466
3.55395
2.60574
-6.15969
-2.02762
8.56074
-4.32343
7.2566
-5.2092
-3.46427
-5.21431
-6.89715
-1.73641
-6.74617
-8.86416
8.37193
-9.15992
8.5193
12.4836
-5.63152
-6.85211
-3.96848
-2.47374
3.92097
-0.491822
-3.71045
3.71607
0.0505196
3.8312
4.75376
4.26194
-3.88483
-1.92902
-3.8284
3.82458
2.05006
3.89161
6.8533
2.30791
6.88524
-6.63078
-2.56599
-6.72739
9.02255
-8.62411
2.83097
-2.73135
5.4034
2.63266
-5.18792
-2.86251
6.20817
-3.22021
-2.98796
-12.2023
10.5228
1.67946
-4.81912
-0.381445
-0.479606
-5.48527
-3.74856
5.36583
0.549445
11.0723
7.32374
-5.51199
5.76201
6.166
6.22279
-0.177314
5.79506
-5.12531
5.25634
-2.62127
-2.63507
5.48985
-5.62451
-1.23754
-5.5437
4.30616
0.412803
1.40933
-1.17957
-1.74901
-0.45323
-1.62242
1.19476
0.908574
1.26195
0.964095
1.37234
-2.94789
0.507436
2.44046
-1.9838
-1.48605
-3.85668
-1.14011
4.99679
5.74785
2.10358
-5.6431
-0.231585
2.50578
-2.39361
-0.809226
-3.04745
2.24003
-3.04926
-3.66412
-2.10031
5.76443
-3.36976
-0.458642
3.31633
0.553523
-3.8273
-2.09769
3.78889
0.329441
-3.12856
6.19113
-3.06256
-5.05758
2.52744
3.55967
4.53829
-4.78956
2.44783
2.34173
-1.22989
4.24819
0.94544
4.41948
-6.95316
4.72819
5.8139
3.24203
-6.17329
1.00372
-5.94944
8.55188
-7.37877
-1.17311
4.17012
4.38176
7.04605
5.43758
-5.66278
12.7088
-1.20871
-6.17006
7.15815
-3.91612
4.85637
-8.77249
-10.2939
4.12388
-9.11353
10.8876
-1.77407
-3.61698
-8.31661
12.7305
-1.2016
-11.5289
8.55234
-4.29037
-4.40988
8.70025
-6.93556
6.96995
-1.99092
-4.97903
-10.0831
-5.68505
10.181
1.59772
-9.94248
12.2925
-2.72848
4.12591
0.738474
4.16559
3.30531
-5.49113
2.18582
3.63025
-5.62117
2.07844
-7.56957
-6.71938
12.0496
-5.33021
-10.476
-9.49897
-0.976981
2.53499
9.75746
-9.45534
7.41115
2.04419
3.30051
0.591101
-3.37562
-0.405185
0.234106
4.51323
-4.74734
4.03908
4.19613
3.26309
1.25014
3.8457
2.10731
-3.87029
-0.329557
-4.16438
1.48308
-1.74626
-3.69505
5.17813
-4.06751
0.372465
-2.74401
-3.49745
6.24146
-4.58351
3.03489
3.15624
5.08495
-4.91352
1.41607
-2.39274
-2.52078
2.65145
-4.39771
1.99501
3.18313
4.37531
0.558164
5.87539
6.1742
-8.48114
0.539434
11.2078
-9.49991
2.462
8.56107
-9.87315
0.374174
-8.67242
0.996873
-5.3203
-5.16282
5.20552
-6.94192
-3.56697
6.22491
0.66033
-6.33677
-0.409396
-6.02544
-2.83873
-6.4703
-3.03795
-6.12197
-8.70074
-1.64923
-7.0515
6.7227
-6.67083
-3.43309
7.39517
1.12413
-7.39903
7.29747
-7.47761
7.1494
0.0954745
3.6206
4.35741
1.88367
-2.3907
4.27437
-5.12667
7.43458
-8.73682
3.61015
4.21759
-6.78358
-4.51924
5.01232
4.01023
5.31014
8.86477
-10.3235
1.45868
-10.6261
11.9601
-1.33402
-16.3771
5.75103
-7.5123
2.43237
0.398604
2.55119
0.541108
2.49865
-3.03976
-2.19024
-2.09993
-2.44302
-3.46461
5.90763
1.08273
-3.53257
2.44984
-3.56759
4.65032
-0.221849
-3.31072
5.26629
-2.76763
5.66489
-3.78944
1.87545
3.44054
5.75374
-2.3132
4.39564
-1.76298
1.93148
-4.24468
-1.53313
-2.95512
5.09273
-3.28634
3.65881
-0.345396
4.0042
-4.04611
0.825905
-0.78302
3.41311
3.64146
4.31674
-3.0666
2.91591
-4.67889
-1.32878
-4.12073
-0.937602
-0.252148
-3.69114
3.94329
5.96392
-6.21607
-5.22609
9.51166
-4.28557
7.68063
-5.37343
-2.3072
-4.24319
-4.38093
3.86867
1.92639
9.60702
0.207947
-5.58138
-4.91736
-3.96863
3.09496
2.16139
-1.70123
3.38069
2.18084
-0.771508
0.430193
0.831759
1.77455
-1.34436
0.324309
1.45025
-0.855257
1.68864
0.817132
-1.80715
0.184732
-1.34914
3.58917
1.09132
-1.9999
0.655535
0.976294
-3.59757
5.08057
-2.69599
-2.38458
6.05686
1.14264
-3.83863
4.40106
-3.98826
2.40418
-3.54429
-1.43445
-5.4227
-3.67181
-2.51459
4.96443
-3.39304
5.49661
1.30032
-5.26503
6.56535
-3.73202
1.63171
-3.04038
3.85751
-0.9183
-2.12208
2.90247
2.86196
-3.09014
0.0426819
-0.187668
2.40478
-2.59245
-0.644478
-2.62828
-4.5737
4.90314
-2.1051
4.55293
2.16927
-1.91733
6.47025
1.80863
-3.72595
-3.24895
-3.70759
-1.38422
3.15407
-0.569471
-4.29356
-5.5485
4.16228
0.2572
-7.07123
7.88859
-0.817357
-4.01949
-0.708703
4.87882
-6.0903
0.46913
-4.01186
3.87673
4.82217
5.07937
-11.3087
-0.220175
-6.1771
1.12059
-7.29769
5.50235
-3.529
7.65288
-10.304
6.87087
-9.17983
6.47977
-0.817917
6.23801
-4.05218
2.74807
-8.43313
-6.83541
5.56073
-2.79666
6.2992
-3.17511
9.47431
-5.90359
5.34077
4.13354
-1.02808
-4.18623
-5.34747
4.31939
-0.0067027
4.15889
4.98036
-2.87305
4.6508
2.27017
-4.66291
-2.12754
-6.49633
1.83342
-3.34009
-1.92136
3.75478
3.16359
3.75469
1.23401
-3.34951
7.20436
-8.18134
-1.87415
-3.28867
5.33906
-1.01967
3.44551
-6.73418
-1.87479
4.77783
-0.776798
-4.00103
0.853691
-4.42066
1.67594
-6.0966
5.26599
-5.67538
2.2214
-9.73371
-5.17763
-5.13771
-2.25744
-5.22017
-7.55454
5.2971
-1.80351
5.49396
-8.48335
7.70656
-3.47672
8.77382
-5.42081
-1.04949
5.83795
1.31145
10.0853
0.228461
-4.7477
-1.9267
3.83022
-1.90351
1.16825
-3.46268
0.367536
2.49874
3.55812
-6.8049
0.0213244
-4.72637
-3.91182
7.92204
5.59984
11.5638
1.24031
9.10011
-1.17807
10.3404
4.13207
4.36748
-2.97911
4.43778
0.964182
4.57433
-0.927115
2.80256
1.62407
1.71313
0.680484
2.30384
1.33761
3.12975
0.089987
-2.00995
4.61584
-8.58447
-0.965534
-8.00938
1.14152
5.70301
-4.56149
2.91268
-0.751298
1.00917
-0.143492
-1.15952
1.30301
-2.77856
-1.93103
-0.480784
-1.69771
2.35325
1.89146
-1.87246
-0.906103
0.351252
-4.02306
3.19304
-3.15036
-0.288397
6.27695
-2.81375
0.221303
-1.18204
-2.40697
-2.8602
2.67547
6.17635
0.2939
3.11379
5.19705
3.09935
0.226302
3.88016
-5.65423
-3.68941
-5.8744
-0.372052
4.50677
1.76528
7.99218
5.89882
4.87915
-1.85503
-10.0364
6.50355
-2.06577
5.16953
-1.1685
-4.9281
5.05483
2.37976
-5.71516
0.0397746
-4.88832
-6.95409
-0.510189
8.21674
-9.57508
8.52559
5.68686
1.36464
-4.39664
-0.741074
4.23312
0.134361
10.4748
-1.13001
-6.69465
7.82466
-4.573
3.60746
0.72782
2.65287
2.03083
1.27953
-5.41512
-9.9766
-2.0743
-1.52326
-4.45888
0.537908
-2.42936
6.21263
-2.60517
3.90544
5.21949
6.22866
-2.126
-4.09007
6.41157
-2.50613
3.72254
)
;

boundaryField
{
    wall-4
    {
        type            calculated;
        value           uniform 0;
    }
    velocity-inlet-5
    {
        type            calculated;
        value           uniform -3.75095;
    }
    velocity-inlet-6
    {
        type            calculated;
        value           uniform -5.62643;
    }
    pressure-outlet-7
    {
        type            calculated;
        value           nonuniform List<scalar> 8(3.2956 7.75127 4.46601 9.66338 7.42205 5.17566 5.79595 8.94343);
    }
    wall-8
    {
        type            calculated;
        value           uniform 0;
    }
    frontAndBackPlanes
    {
        type            empty;
        value           nonuniform List<scalar> 0();
    }
}


// ************************************************************************* //
