/*--------------------------------*- C++ -*----------------------------------*\
| =========                 |                                                 |
| \\      /  F ield         | OpenFOAM: The Open Source CFD Toolbox           |
|  \\    /   O peration     | Version:  2206                                  |
|   \\  /    A nd           | Website:  www.openfoam.com                      |
|    \\/     M anipulation  |                                                 |
\*---------------------------------------------------------------------------*/
FoamFile
{
    version     2.0;
    format      ascii;
    arch        "LSB;label=32;scalar=64";
    class       volVectorField;
    location    "85";
    object      U;
}
// * * * * * * * * * * * * * * * * * * * * * * * * * * * * * * * * * * * * * //

dimensions      [0 1 -1 0 0 0 0];

internalField   nonuniform List<vector> 
918
(
(0.98516 -0.000508424 0)
(0.00501704 2.96625 0)
(0.00758597 0.882661 0)
(0.979705 0.002145 0)
(-0.0122244 2.06119 3.79956e-20)
(-0.00704938 2.9488 -2.4337e-18)
(0.822778 1.16888 4.51711e-19)
(0.100408 0.07102 -1.45055e-20)
(0.999909 -0.00027526 0)
(0.0667468 0.738306 0)
(0.0191593 0.479091 0)
(0.73172 0.00662758 0)
(0.0111009 2.93036 0)
(0.00297997 2.7949 0)
(-0.0178824 3.14618 7.8244e-19)
(-0.021235 1.91776 1.26057e-20)
(0.287011 0.0604944 1.01905e-18)
(0.189373 1.14522 3.1769e-19)
(0.96271 0.00501562 0)
(0.00614807 0.425964 0)
(-0.00581367 0.017049 -6.68053e-19)
(1.00197 -0.0049741 0)
(1.00023 -0.00978301 0)
(0.975741 -0.00643848 0)
(0.598123 0.0306857 0)
(0.0131697 2.64313 0)
(-0.0147625 2.90994 8.932e-19)
(0.012536 0.926046 0)
(-0.0209703 1.1842 0)
(0.0148226 0.910235 0)
(-0.0154076 2.58543 0)
(-0.00112892 2.11512 -3.03453e-20)
(-0.0112379 1.89722 0)
(-0.0206059 2.98761 -8.73714e-23)
(-0.0166825 3.00529 1.89136e-18)
(0.0021013 3.00017 0)
(0.871478 -0.00965967 0)
(0.40082 0.929632 1.8128e-19)
(0.809725 1.18227 -5.17476e-19)
(0.960657 1.0293 5.63352e-19)
(0.677134 1.27402 -1.05296e-19)
(0.676747 1.24782 6.02746e-19)
(0.125643 0.120306 1.41743e-20)
(0.1375 0.0584836 0)
(1.16734 0.566696 0)
(0.0904872 0.089144 6.37064e-20)
(0.0642331 0.0482957 -6.627e-20)
(0.919931 -0.00745736 0)
(1.00027 0.000162951 0)
(0.999909 0.000339837 0)
(1.00363 -0.00775683 0)
(1.00096 -0.000917551 0)
(1.00017 3.84462e-05 0)
(0.0727452 1.82636 -7.68658e-19)
(0.0326167 0.946085 0)
(0.0987632 0.817062 0)
(0.0149373 0.892981 0)
(0.0412079 0.657849 0)
(0.00708106 2.0162 0)
(0.00298169 0.772504 0)
(0.019262 0.500574 0)
(-0.00197427 0.759208 0)
(0.0122722 0.45792 0)
(0.842211 -0.0156613 0)
(0.842428 0.0270777 0)
(0.757785 0.00372526 0)
(0.801004 0.0294383 0)
(0.700874 0.0185644 0)
(0.0146834 3.00041 9.01664e-19)
(0.0114938 3.00806 0)
(0.00610985 3.00275 0)
(0.0135412 2.99736 1.02232e-23)
(0.00796297 2.95848 -1.34009e-18)
(0.0144852 2.98201 0)
(0.0108569 2.90362 0)
(0.0247075 2.93072 2.03679e-24)
(0.00460437 2.82479 0)
(0.0304264 2.91636 0)
(-0.00536946 2.7463 0)
(0.303412 3.53697 0)
(-0.131474 3.61725 0)
(0.136818 3.23585 -7.28125e-19)
(-0.0138472 2.97526 0)
(-0.0278159 1.98635 0)
(-0.00714542 2.16932 -1.24329e-20)
(-0.0152025 1.9262 7.39907e-21)
(0.337508 0.137727 -3.5382e-19)
(0.317627 0.0362485 -3.43868e-19)
(0.291789 0.140774 -1.05973e-18)
(0.251615 0.0663398 -6.88481e-19)
(0.22986 0.986087 0)
(0.273049 1.29533 -3.69708e-19)
(0.367729 1.23083 6.17003e-19)
(0.987423 0.00857821 0)
(0.941846 0.00580188 0)
(1.0003 0.000581783 0)
(1.00286 0.00931047 0)
(1.00301 0.00847423 -2.7498e-18)
(0.991906 0.00969486 2.07654e-18)
(-0.0146795 0.754579 0)
(0.0096388 0.430963 0)
(-0.0547009 1.00774 0)
(-0.0327544 0.80599 0)
(0.00158043 0.433429 0)
(-0.0932746 0.0826956 2.07436e-19)
(0.0373116 0.0556407 0)
(0.993556 -0.00836822 0)
(0.954475 -0.00653442 0)
(0.743645 0.0297827 0)
(0.678238 0.0282656 0)
(0.660727 0.025951 0)
(0.972963 -0.00706561 0)
(0.586268 0.0738937 0)
(0.457423 -0.00235468 1.54371e-18)
(-0.0372749 2.86201 6.53535e-19)
(0.0413289 2.9101 0)
(0.0534539 2.88616 0)
(-0.00450749 2.70118 0)
(-0.0134632 2.98507 8.44837e-19)
(-0.0178151 2.89488 0)
(-0.015443 2.98807 -2.62159e-18)
(-0.0132996 2.92516 8.97718e-19)
(-0.0365115 1.35296 0)
(-0.00760673 1.38412 0)
(-0.00735161 2.13386 5.9235e-22)
(-0.00631547 2.09544 0)
(-0.0234193 1.90493 0)
(0.938713 -0.0073515 0)
(0.85768 -0.0099708 0)
(0.862696 0.00546729 0)
(0.949679 -0.00778446 0)
(0.884146 -0.00820048 0)
(0.511845 1.12225 -2.28805e-19)
(0.561075 1.17323 0)
(0.365682 0.874654 3.37233e-20)
(0.30871 0.733498 0)
(0.923255 1.06504 -1.55653e-19)
(1.04287 0.874943 3.18229e-19)
(0.360684 1.35778 0)
(0.529113 1.32937 0)
(0.550383 1.26787 0)
(0.121606 0.184903 -3.03485e-19)
(0.159927 0.114437 0)
(0.17205 0.0991378 1.89404e-19)
(1.01352 0.92911 0)
(1.088 0.782521 0)
(1.11338 0.724274 -2.54515e-19)
(1.14668 0.62618 0)
(1.19667 0.409081 5.78908e-20)
(0.957814 -0.00868071 0)
(0.962546 -0.0100193 0)
(0.901811 -0.00798812 0)
(0.984213 -0.00913903 0)
(0.974729 -0.00932083 0)
(0.937155 -0.00637504 0)
(1.00019 0.00234131 0)
(1.0009 0.00141787 0)
(0.999909 0.000856181 0)
(0.0355482 2.0721 4.26105e-19)
(0.118472 1.76943 0)
(0.0182019 2.18555 6.54168e-19)
(0.0459334 1.88063 -5.4455e-19)
(0.106983 1.14994 -2.60153e-19)
(0.0496768 1.02791 0)
(0.143371 0.982702 0)
(0.00907609 0.84555 0)
(0.0205407 0.592971 0)
(-0.000854711 2.24179 -7.64689e-22)
(0.0161555 2.02002 0)
(-0.00178525 2.24461 -2.49273e-20)
(0.00845169 2.02597 3.65392e-20)
(0.0057277 0.816317 0)
(0.003649 0.792974 0)
(0.0157695 0.540344 0)
(-0.00872831 0.752636 0)
(0.00605646 0.44051 0)
(0.938911 0.00987635 0)
(0.85106 -0.0146064 0)
(0.92795 0.000500351 0)
(0.842928 -0.0128709 0)
(0.809585 0.000655163 0)
(0.899245 0.020876 0)
(0.875349 0.0242467 0)
(0.783286 0.000937291 0)
(0.00574872 3.06497 -8.38568e-21)
(0.0166539 3.05757 0)
(0.0146599 2.96902 0)
(0.00874453 2.87626 0)
(0.917859 3.94717 0)
(1.23053 3.28105 9.22732e-19)
(0.0686991 3.06764 0)
(-0.029622 2.90089 0)
(-0.011502 1.40732 0)
(-0.0337262 1.70109 0)
(-0.0201395 1.53902 0)
(-0.0312056 2.54487 -9.32612e-21)
(-0.0158658 2.23889 0)
(-0.0213417 2.38513 0)
(-0.00106579 1.95366 7.61449e-22)
(-0.00372556 2.24072 -1.19106e-20)
(-0.0055784 2.20449 -7.71092e-21)
(-0.00898951 1.93823 0)
(0.387818 0.121436 5.40924e-19)
(0.366966 0.0223513 -5.30789e-19)
(0.258283 1.58512 0)
(0.278301 0.759309 -3.15827e-19)
(0.176777 1.67243 -1.04657e-18)
(0.225609 1.22156 1.04883e-18)
(0.901921 0.00615053 0)
(0.967328 0.0112294 0)
(0.974512 0.0108377 0)
(0.923254 0.00631566 0)
(-0.0106623 0.748398 0)
(-0.0129067 0.746887 0)
(0.00790641 0.428304 0)
(0.0784051 0.0639672 5.86376e-19)
(0.0744568 0.0376895 -6.88905e-19)
(0.0377532 0.0388503 0)
(1.1022 0.0872204 2.70208e-20)
(1.08418 0.0400609 0)
(1.01531 0.0404796 0)
(0.908729 -0.00498179 0)
(0.440832 0.103434 0)
(0.500332 0.0872541 -2.46748e-18)
(0.410647 0.0161784 9.23102e-19)
(0.00856938 2.98106 7.0514e-19)
(-0.0323264 2.86522 4.68831e-20)
(0.00358019 3.05035 -1.77695e-20)
(0.0202034 3.04326 6.31369e-19)
(-0.0149823 2.99659 2.94965e-20)
(-0.0129238 2.94944 -1.1869e-22)
(-0.0172657 3.01193 -5.46325e-19)
(0.0148924 3.02372 3.95994e-19)
(0.00742086 3.03692 -6.26534e-19)
(0.934256 -0.00114704 0)
(0.939645 -0.00314773 0)
(0.846258 -0.0094568 0)
(0.956376 0.0121284 0)
(0.942369 0.0135796 0)
(0.881351 0.00555694 0)
(0.916234 0.0175878 0)
(0.925386 0.0154754 0)
(0.837282 0.00252566 0)
(0.714135 1.39891 3.72251e-20)
(0.74746 1.50742 0)
(0.179549 0.311782 7.0644e-20)
(0.230119 0.668935 5.67759e-19)
(0.261979 0.718206 -3.31797e-19)
(0.261458 0.516081 6.6067e-19)
(0.347343 0.813364 1.59677e-18)
(0.141399 0.231127 3.76755e-19)
(0.248826 0.142907 7.28298e-19)
(0.209954 0.133576 1.88596e-19)
(0.214507 0.0781141 3.57165e-19)
(1.18557 0.467234 6.78326e-20)
(1.20013 0.258794 6.27753e-20)
(0.0104062 2.23429 2.51183e-19)
(0.0403159 1.94902 0)
(0.971903 0.0296781 0)
(0.944122 0.0140887 0)
(0.870188 -0.0177189 0)
(0.0113868 3.07422 0)
(0.0197285 2.94422 1.15401e-18)
(0.0163802 2.95632 0)
(0.00642489 2.8505 -1.14462e-18)
(0.00641417 3.09177 2.79895e-19)
(0.00696038 3.08231 0)
(0.780145 1.80831 -1.57358e-19)
(1.23836 2.4827 3.9854e-19)
(0.76204 1.94747 -1.22147e-18)
(0.0193273 2.9803 -6.05317e-19)
(0.0346295 2.99803 0)
(-0.0350938 2.87551 0)
(-0.00398131 2.22429 -1.31908e-20)
(-0.00323224 2.24523 2.02978e-20)
(0.0016964 1.9884 -7.27521e-21)
(0.278305 1.39486 1.02473e-18)
(0.24022 0.555263 -7.02539e-19)
(0.0636969 1.99707 7.60174e-19)
(0.134968 1.88337 -9.0807e-19)
(0.180024 1.51263 9.53154e-20)
(0.00570656 3.11816 -1.55439e-18)
(0.0120543 3.119 1.70291e-18)
(-0.00938969 2.98044 7.77136e-19)
(-0.00427211 2.97707 -7.32721e-19)
(-0.0213895 2.88052 -7.91503e-19)
(0.0083857 3.09896 -2.07743e-18)
(0.00146049 3.10598 2.09551e-18)
(0.283485 0.696052 0)
(0.249313 0.684393 -1.183e-18)
(0.0957735 0.224574 5.25173e-19)
(0.358565 0.940906 1.11528e-18)
(0.196445 0.277492 -1.71961e-18)
(1.19026 0.176443 6.21769e-20)
(1.20042 0.313789 0)
(1.17865 0.123728 -4.99724e-21)
(0.00166495 2.25323 -1.42315e-21)
(0.0050929 2.24442 0)
(0.0247031 1.98502 0)
(0.339804 1.30394 -3.67789e-19)
(0.375423 1.15268 -8.00582e-19)
(0.211207 0.380022 1.42815e-18)
(1.00588 -0.0108222 0)
(1.00767 -0.00763008 5.07242e-19)
(-0.0309691 1.33404 0)
(-0.0437178 1.33517 0)
(1.00221 0.00351719 1.81298e-21)
(1.00367 0.00947458 1.03578e-18)
(-0.0196562 2.52985 1.18207e-20)
(-0.0246781 2.57251 0)
(0.0333562 3.17612 3.9714e-19)
(0.388239 3.48076 0)
(1.17926 0.668456 -5.55369e-20)
(1.01283 0.0131486 -2.12936e-21)
(1.02137 -0.0102619 0)
(1.0017 0.000136727 8.07168e-23)
(0.112962 1.37253 0)
(0.143201 2.56469 0)
(0.0356543 1.31538 0)
(0.000538226 2.61651 2.45813e-20)
(-0.0208719 2.57387 -1.15762e-21)
(0.999607 0.0311249 2.52646e-21)
(1.06335 0.00494271 0)
(1.09802 0.0255892 0)
(-0.0319991 1.74457 0)
(-0.0189887 2.57429 0)
(-0.00788163 1.32363 0)
(0.311656 1.48533 -1.68143e-19)
(1.01131 -0.0096066 0)
(1.0094 -0.0149139 0)
(1.00237 0.000762372 6.48288e-19)
(1.00547 -0.00479325 -7.61926e-19)
(1.00118 -0.000963883 0)
(-0.0195053 1.47464 0)
(-0.00823084 1.38783 0)
(-0.011385 1.43248 0)
(-0.0122749 1.31019 0)
(-0.0257821 1.29728 0)
(-0.015869 1.28212 0)
(1.03511 -0.00599952 0)
(1.01972 0.0160453 -9.29771e-22)
(0.825175 1.27791 2.63027e-19)
(1.00223 0.000329063 -6.45711e-19)
(1.00406 0.00526697 7.56068e-19)
(1.00118 0.00207994 0)
(1.01269 0.0103977 6.4277e-19)
(1.00797 0.00832106 -7.7883e-19)
(1.00856 0.0146819 0)
(-0.0241555 2.60151 0)
(-0.026341 2.58043 -2.23442e-20)
(-0.0235339 2.59484 1.58523e-20)
(1.23992 0.270278 5.78371e-19)
(1.16401 0.0879486 0)
(0.0385805 3.07862 -8.91502e-19)
(0.0647962 2.85725 -6.4846e-20)
(0.137153 3.19169 1.36554e-18)
(0.132457 3.21892 -1.90085e-19)
(0.132303 3.22909 0)
(0.0183116 3.13708 2.30066e-19)
(0.0730627 3.15979 8.79059e-19)
(0.0661372 3.18448 -4.33829e-19)
(0.0210395 3.12998 0)
(0.550535 0.281493 0)
(0.485356 0.300389 0)
(1.15174 0.704867 1.24495e-19)
(1.14458 0.826475 -1.0613e-19)
(1.20712 0.591344 0)
(1.23424 0.524769 0)
(1.01599 0.0134043 -1.19804e-18)
(1.01494 0.0142681 1.50414e-18)
(1.02543 -0.00978164 0)
(1.02349 -0.01183 0)
(1.00642 0.00266586 0)
(1.01042 0.00377235 0)
(1.00458 0.00187913 0)
(1.00977 0.00627567 0)
(1.0078 0.00597206 0)
(1.00451 0.00473844 0)
(0.101584 1.3711 0)
(0.0985951 1.33292 0)
(0.132 1.4076 0)
(0.150193 1.412 0)
(0.145293 2.58988 0)
(0.184757 2.66059 -4.21795e-19)
(0.101638 2.6448 0)
(0.0853718 2.64787 1.96843e-19)
(0.0391871 2.67102 -1.44774e-19)
(0.0225599 1.33218 0)
(0.0329801 1.24844 0)
(0.0250161 1.34227 0)
(0.0466947 1.26962 0)
(0.0047679 1.98132 7.32852e-21)
(-0.01978 2.60159 -2.48195e-20)
(-0.00745557 2.65782 8.13028e-21)
(-0.0174366 2.6776 0)
(-0.0229167 2.60726 7.96149e-21)
(-0.0230174 2.60227 2.10112e-20)
(0.0134823 1.97931 -1.92928e-21)
(-0.00724637 2.38802 3.32962e-20)
(-0.0125884 2.41119 -9.22098e-21)
(1.01194 0.0399728 1.21261e-18)
(1.00535 0.0212053 -1.50968e-18)
(1.00412 0.0472049 -1.23548e-18)
(0.978711 0.0379777 1.55485e-18)
(1.06454 0.008739 0)
(1.04963 -0.0081063 0)
(1.09514 0.035622 0)
(1.07474 0.0133159 0)
(1.07254 0.00107594 0)
(1.14106 0.0847623 0)
(1.11263 0.0454632 0)
(1.11685 0.0331177 0)
(-0.0268363 2.42421 1.72777e-21)
(-0.0167891 2.01334 0)
(-0.0188632 2.21246 0)
(-0.0208473 2.59491 -1.39852e-20)
(-0.0178712 2.60519 3.09577e-22)
(0.000677953 1.58731 -4.29805e-20)
(-0.0102753 1.51482 4.382e-20)
(-0.0193711 1.40383 0)
(-0.0231455 1.41078 0)
(-0.030561 1.40511 0)
(-0.00412538 1.3252 0)
(0.0124807 1.24321 0)
(0.387969 1.50282 2.7367e-19)
(0.431347 1.50338 1.45301e-19)
(0.596906 2.44052 -2.40547e-19)
(0.397202 2.53804 7.07153e-19)
(0.348492 2.04743 7.18783e-20)
(1.0211 -0.0080853 0)
(1.01552 -0.0097286 0)
(1.01493 -0.0154962 0)
(1.0074 -0.00104486 0)
(1.00493 -0.000899128 0)
(1.00779 -0.00466742 0)
(1.00928 -0.00357767 0)
(1.01424 -0.00433768 0)
(1.02043 0.016624 1.17386e-18)
(1.01751 0.0157393 -1.50326e-18)
(1.02075 0.0189275 -1.18353e-18)
(1.01809 0.0174486 1.48302e-18)
(0.788405 1.3282 0)
(0.723528 1.37957 2.48224e-19)
(0.901573 1.2284 1.00199e-19)
(0.947378 1.17421 -1.33353e-19)
(1.15224 2.59447 2.84748e-19)
(0.763834 0.123723 6.01069e-19)
(1.16462 0.110895 0)
(1.21443 0.196895 -4.65648e-19)
(1.20202 0.157035 -1.98623e-20)
(1.0058 0.159179 0)
(0.125645 2.95918 5.19345e-19)
(0.101459 2.86486 -1.13055e-18)
(0.00653909 2.37847 7.52354e-19)
(0.109272 -0.183353 -3.04676e-19)
(0.333504 3.41135 -2.18415e-19)
(0.189709 3.30691 0)
(0.233703 3.3465 2.84457e-19)
(0.236547 3.03093 -1.74496e-18)
(0.328922 3.18821 0)
(0.0060302 3.1209 4.51511e-20)
(0.0169466 3.12943 -5.30552e-19)
(0.0146484 3.12556 7.80872e-19)
(0.033871 3.13958 0)
(0.0320186 3.15008 0)
(1.20662 2.59126 0)
(0.550811 0.796323 -5.26362e-19)
(1.07106 0.999117 -1.18252e-20)
(1.00683 1.08317 0)
(0.860587 0.977763 -1.08792e-19)
(1.09819 0.900014 2.7843e-20)
(0.272378 0.304108 -8.08794e-19)
(0.637906 0.326509 -1.59252e-20)
(0.520497 0.220075 4.05407e-19)
(0.506124 0.337304 2.8891e-20)
(0.38964 0.263405 -1.15703e-18)
(0.590279 0.326654 0)
(0.708349 0.433492 6.60544e-19)
(0.705212 0.433724 0)
(0.548332 0.342123 0)
(0.455047 0.238465 0)
(0.833484 0.631857 4.05689e-19)
(1.24139 0.292786 -4.86311e-19)
(1.24216 0.432663 0)
(1.25018 0.372667 0)
(0.669959 0.195137 6.21952e-19)
(0.877702 0.562998 -3.69988e-19)
(0.777488 0.541356 6.60818e-19)
(0.96355 0.453217 -7.31961e-19)
(1.01917 0.0150585 8.0625e-19)
(1.0175 0.0144071 -8.10015e-19)
(1.01579 0.015401 0)
(1.03658 -0.00553904 0)
(1.02998 -0.00832839 -7.58771e-19)
(1.02803 -0.0119268 7.51231e-19)
(1.02491 0.0107283 0)
(1.02338 0.014527 0)
(1.01142 0.00420284 0)
(1.01417 0.0092189 0)
(1.01517 0.00423683 0)
(1.01428 0.00294314 0)
(0.0725281 1.35448 0)
(0.0799545 1.29924 0)
(0.148789 1.3891 7.68105e-21)
(0.282334 1.48371 8.94375e-20)
(0.177362 1.45443 1.88087e-19)
(0.209838 1.45964 -3.06684e-19)
(0.177746 1.4147 0)
(0.136234 1.59981 -7.08802e-20)
(0.120278 1.57955 0)
(0.344258 1.9961 -1.04523e-19)
(0.340818 2.33361 6.13012e-19)
(0.196553 1.46675 6.17886e-20)
(0.269752 1.40077 2.32208e-20)
(0.20299 1.39374 -1.87487e-20)
(0.279755 1.3436 -1.04869e-19)
(0.242995 1.57833 0)
(0.269748 1.61484 1.13538e-19)
(0.031274 2.25423 -2.84738e-20)
(0.0441668 2.66003 0)
(0.0668515 2.39053 1.35324e-19)
(0.0635821 2.41114 0)
(0.0699155 2.66145 -2.1815e-19)
(0.0496172 2.69034 0)
(0.0305054 1.45094 3.83401e-20)
(0.0369995 1.49762 0)
(0.0349519 1.4154 0)
(0.030595 1.42205 -4.32666e-20)
(0.00135054 2.64395 -1.65658e-20)
(0.0302691 2.68939 1.62132e-19)
(0.0110348 2.71477 1.13498e-21)
(0.00644097 1.84051 -1.02985e-20)
(-0.000387273 1.69464 -5.6125e-21)
(0.0192137 1.30922 0)
(0.0296774 1.22446 0)
(0.0462732 1.59687 -3.04446e-20)
(0.035896 1.47717 -3.65569e-20)
(0.0396355 1.54004 4.56923e-20)
(0.0412841 1.62018 0)
(-0.0305915 2.26617 1.08941e-19)
(-0.0316151 2.54188 -4.53888e-20)
(-0.0173821 2.44045 5.54236e-21)
(-0.00143712 1.85595 1.24795e-20)
(-0.0260048 2.49291 5.17115e-21)
(-0.0201829 2.43743 -9.77462e-21)
(1.01897 0.022311 -8.04572e-19)
(1.01559 0.0286723 8.07655e-19)
(1.01272 0.0183793 0)
(1.00906 0.0714613 1.13209e-18)
(0.991672 0.0619478 -1.26372e-18)
(0.95099 0.0563451 1.413e-18)
(1.01286 0.112052 -1.50652e-19)
(1.04303 -0.00550506 0)
(1.0515 -0.0010592 7.23443e-19)
(1.03935 -0.0096681 -7.24928e-19)
(1.07235 0.0433391 -4.30268e-20)
(1.06524 0.0244613 3.71076e-19)
(1.06306 0.0576568 0)
(1.05418 0.0511058 -1.33503e-19)
(1.03213 0.0423832 0)
(1.02668 0.038582 0)
(1.02794 0.0139158 0)
(1.02395 0.0166679 0)
(1.0402 0.0333135 2.74945e-19)
(1.03886 0.0271163 -6.0787e-19)
(1.05148 0.0349703 -2.91361e-19)
(1.04832 0.035078 -3.2092e-19)
(1.0718 0.0660549 6.26282e-19)
(1.09738 0.0538514 0)
(1.10696 0.0983178 0)
(-0.026492 2.27072 6.01749e-20)
(-0.0264803 2.01942 1.59345e-21)
(-0.0225486 2.02686 0)
(-0.0275616 2.43869 -5.98917e-20)
(-0.0230592 2.39498 -3.24542e-21)
(-0.0338236 2.46513 6.4664e-21)
(-0.020623 2.61467 -1.84804e-20)
(-0.0236669 2.55616 5.6895e-22)
(-0.0222614 2.50836 -5.47444e-21)
(-0.0159631 2.60828 1.39736e-20)
(-0.0208749 2.61043 -1.5464e-20)
(-0.00793613 1.51525 -1.04069e-21)
(0.00119985 1.63421 -4.26127e-20)
(0.3731 1.45173 -1.15371e-19)
(0.37316 1.38445 3.8933e-20)
(0.664235 1.42929 -2.40093e-19)
(0.530368 1.49613 -1.4264e-19)
(0.588363 1.46222 0)
(0.592605 2.41768 2.07025e-19)
(0.661228 2.41381 3.37672e-19)
(0.410657 2.50691 8.82205e-20)
(0.401907 2.5308 -6.07568e-19)
(0.509524 2.47122 6.14211e-19)
(0.552714 2.45433 0)
(0.487133 2.51238 -5.58831e-19)
(0.247935 2.58432 1.13989e-18)
(0.354278 2.55631 -7.69053e-20)
(0.283407 2.64606 -1.58287e-18)
(0.947994 2.37026 7.30425e-19)
(0.837783 2.37611 0)
(1.01109 0.000558152 2.62997e-20)
(1.01538 -0.00533598 -2.13318e-20)
(1.01769 -0.00343364 -3.89604e-19)
(1.01506 -0.000794264 3.91729e-19)
(1.01248 0.00130884 0)
(0.651678 1.29318 0)
(0.675982 1.1869 0)
(0.790433 1.10655 0)
(0.669144 1.15029 0)
(1.18245 2.6079 6.02568e-20)
(1.07036 2.35523 0)
(0.831859 2.15625 3.90411e-21)
(0.822499 2.4236 0)
(0.920799 2.51798 -4.25268e-19)
(0.955937 2.47414 2.82846e-19)
(0.79561 0.184148 0)
(0.736003 0.15707 1.63059e-19)
(0.905404 0.153279 9.50039e-19)
(0.821386 0.156208 -3.55284e-19)
(0.774825 0.0904292 -1.09874e-18)
(1.08315 0.244152 -8.92549e-19)
(0.999769 0.30863 -1.80865e-20)
(0.926642 0.312752 8.59721e-19)
(1.00655 0.237842 7.22677e-19)
(0.947256 0.201714 -1.25655e-18)
(0.908345 0.206238 1.57201e-19)
(0.946425 0.273854 -3.33389e-19)
(0.924421 0.232622 0)
(0.995746 0.198385 6.19571e-19)
(1.04709 0.196855 0)
(1.04501 0.225549 0)
(1.1082 0.122867 2.90192e-19)
(1.07212 0.183161 -1.52149e-20)
(1.07651 0.244091 -1.57902e-19)
(1.10196 0.209735 0)
(1.02098 0.0468348 6.2018e-19)
(1.04008 0.0600439 7.73868e-19)
(1.03368 0.0453239 -6.16315e-19)
(1.04241 0.0680616 -5.19245e-19)
(1.01723 0.0763285 -7.97658e-19)
(0.983873 0.161495 0)
(0.988896 0.106662 0)
(0.965984 0.0771805 -5.02711e-19)
(0.903906 0.0982571 2.00144e-19)
(1.04034 0.109011 7.17277e-19)
(1.06947 0.126229 -8.37113e-19)
(1.07671 0.158883 7.47546e-19)
(1.03195 0.15366 0)
(1.07501 0.113495 0)
(1.05395 0.0941817 -3.43128e-19)
(1.04438 0.0999178 -5.85193e-19)
(0.578473 1.04898 1.42616e-19)
(0.601243 1.37081 -4.44683e-20)
(1.15246 2.72374 -2.31992e-19)
(1.21779 3.06633 3.21839e-21)
(1.24384 2.70656 -1.29087e-19)
(1.27175 2.68933 -2.83877e-20)
(1.19846 2.32924 -1.13539e-20)
(1.20558 2.97005 -9.79249e-20)
(1.22604 2.93566 2.41165e-19)
(1.20759 3.21868 -1.40537e-19)
(1.36656 2.94883 1.94119e-19)
(1.35432 2.86667 0)
(0.572372 0.806312 -5.07809e-20)
(0.0972385 1.21269 5.64729e-19)
(0.567102 0.317728 5.32452e-19)
(0.402583 0.0619443 5.70894e-19)
(0.445047 0.308827 6.56644e-19)
(0.544139 0.425626 -1.06993e-18)
(0.548052 0.419427 8.75962e-19)
(0.446507 0.282728 -3.31134e-19)
(0.294102 0.210379 7.41776e-19)
(0.699483 0.27198 -3.59666e-19)
(0.653998 0.294118 0)
(0.582744 0.20844 6.15667e-21)
(0.74427 0.51612 3.57772e-19)
(0.727806 0.48793 -1.30042e-18)
(0.623836 0.449637 8.92674e-21)
(0.614093 0.439489 0)
(0.699544 0.719352 3.95264e-19)
(0.861925 0.78396 3.91126e-19)
(0.786511 0.866933 -4.57815e-19)
(0.907509 0.821362 -1.5244e-19)
(0.938641 0.866562 -3.6604e-20)
(0.945632 0.866267 3.74849e-20)
(0.872712 0.666766 -6.72226e-19)
(0.952516 0.719029 1.41534e-19)
(1.01282 0.73368 0)
(1.00344 0.70991 -1.91113e-19)
(1.02978 0.34949 2.11276e-19)
(1.15141 0.309618 2.86621e-19)
(1.07125 0.281914 3.64759e-19)
(1.02059 0.382503 -4.29935e-19)
(1.06976 0.44477 0)
(1.12633 0.424609 0)
(0.920808 0.386159 1.25988e-21)
(0.835464 0.320443 0)
(0.886015 0.319565 4.06285e-19)
(0.909821 0.321001 -8.43874e-21)
(0.958776 0.457022 2.03854e-18)
(0.92065 0.512804 5.22999e-19)
(0.924536 0.479466 -5.58583e-19)
(0.837891 0.467958 6.00105e-19)
(0.822174 0.463376 3.6e-19)
(0.791249 0.446722 -3.53348e-19)
(1.02744 -0.0001366 6.49053e-19)
(1.02006 0.000154036 0)
(1.01857 0.00107912 4.23229e-19)
(1.0218 -0.0014457 -9.58738e-19)
(1.0224 0.0046264 4.65752e-19)
(1.02032 0.011687 -9.7533e-19)
(1.02122 0.0110799 0)
(1.02042 0.011331 -2.0329e-19)
(1.01593 0.00794008 5.0999e-19)
(1.01657 0.0107519 -2.54531e-19)
(1.01728 0.0101088 1.87377e-19)
(0.0361777 1.33074 0)
(0.0433356 1.38679 0)
(0.0527545 1.33091 0)
(0.060403 1.27664 0)
(0.075851 1.40407 -4.89913e-20)
(0.0862972 1.36968 2.18188e-20)
(0.114041 1.54916 -1.47472e-20)
(0.107992 1.39234 -4.533e-21)
(0.0412406 1.48229 2.15045e-20)
(0.0449131 1.47596 -1.65549e-20)
(0.068858 1.39148 -1.09983e-20)
(0.0614534 1.3922 4.66302e-20)
(0.0560075 1.36924 6.97204e-21)
(0.0465068 1.39332 4.10974e-21)
(0.107539 2.35787 -1.495e-19)
(0.0962343 2.40689 0)
(0.16924 2.03186 1.08812e-19)
(0.114653 1.70243 4.00127e-20)
(0.234805 2.02991 -8.99093e-20)
(0.198871 2.42002 0)
(0.261689 2.36989 -6.06902e-19)
(0.301891 2.36759 4.28605e-19)
(0.228444 1.98943 -2.50644e-19)
(0.154849 2.14791 1.6989e-19)
(0.141325 2.25404 0)
(0.0192299 1.87681 9.57405e-21)
(0.00149734 2.38254 -2.73416e-20)
(0.00684304 2.14049 0)
(0.0120725 2.4468 -1.36931e-20)
(0.0297498 2.28931 7.02362e-21)
(0.0192121 1.43047 -8.38919e-21)
(0.0164535 1.41215 1.4113e-19)
(0.0149476 1.42071 -4.65082e-20)
(0.0241639 1.4266 -3.93856e-20)
(0.0284399 1.45488 0)
(0.0102663 1.40456 0)
(0.00378112 1.3095 -6.35855e-20)
(0.00511002 1.39913 1.84533e-20)
(0.0118469 1.39642 0)
(0.0127855 1.29996 -4.74603e-20)
(0.024373 1.21478 9.63935e-20)
(1.04085 0.0121444 0)
(1.0471 0.00843128 -6.78976e-20)
(1.03894 0.0227533 -4.89727e-19)
(1.04861 0.02141 0)
(1.05244 0.0211829 0)
(1.03656 0.0124231 -6.80511e-21)
(1.03124 0.0122782 7.87189e-19)
(1.03177 0.0173217 9.54563e-19)
(1.02563 0.0212791 0)
(1.02259 0.0218529 0)
(1.0354 0.0263271 4.88605e-19)
(1.02594 0.028097 0)
(1.02409 0.0277089 0)
(-0.018244 2.02357 0)
(-0.00168447 1.66365 -4.3542e-21)
(-0.00572437 1.76728 -3.25878e-20)
(-0.00332668 1.40564 0)
(-0.00669956 1.56917 -2.46663e-20)
(-0.0118249 1.48198 1.5015e-20)
(-0.0101679 1.42202 0)
(0.387843 1.63455 0)
(0.37609 1.31017 -7.66117e-20)
(0.300311 1.33951 0)
(0.427412 1.30883 1.24065e-20)
(0.478891 1.47381 0)
(0.459017 1.41794 2.29176e-20)
(1.03592 2.67003 -1.54393e-20)
(0.968195 2.39855 -9.17881e-19)
(0.921571 2.18786 1.02742e-18)
(0.851897 2.36788 2.42731e-19)
(0.847203 2.47899 0)
(0.916864 2.47505 0)
(0.931351 2.36376 0)
(0.910301 2.3536 -9.48076e-19)
(0.685671 2.44202 -3.96585e-19)
(0.799065 2.43138 -9.82494e-20)
(0.809281 2.40548 7.46036e-20)
(0.695 2.38664 0)
(0.800331 2.38189 0)
(0.758323 2.39561 -3.69358e-19)
(0.766589 2.46879 0)
(0.637544 1.09464 0)
(0.479513 0.892251 -5.2296e-19)
(0.574235 0.941184 -3.3031e-20)
(0.518375 1.02732 0)
(0.518823 0.967772 7.82057e-19)
(0.80679 0.888952 -1.29336e-19)
(0.814562 1.02413 0)
(0.790185 0.991179 1.84238e-19)
(0.674929 1.03508 0)
(0.675688 0.937318 0)
(1.16199 2.74701 -2.32277e-19)
(1.13936 2.81047 -1.0002e-19)
(0.926995 2.32289 1.05625e-19)
(0.89504 2.30278 -8.45985e-20)
(1.12784 2.71995 0)
(1.08192 2.68926 1.0176e-19)
(1.08722 2.47303 -3.14647e-19)
(0.981833 2.22681 -3.01009e-20)
(0.490305 1.32289 0)
(0.506837 1.05596 -1.25674e-19)
(0.580124 1.16821 0)
(0.848935 0.251516 0)
(0.755778 0.200613 0)
(0.662375 0.154411 0)
(0.839625 0.25263 -6.32518e-19)
(0.725306 0.245697 3.74537e-19)
(0.922065 0.0914796 -4.12439e-19)
(0.924399 0.133487 0)
(0.912614 0.142276 1.78236e-19)
(0.848656 0.118399 7.12612e-19)
(0.812633 0.0792115 -4.46529e-19)
(1.15198 3.34333 -7.12322e-19)
(1.20161 3.26302 0)
(1.14929 3.3727 -1.48284e-18)
(0.6381 3.53471 1.25671e-18)
(0.858048 3.10459 6.78917e-20)
(0.525059 0.783125 6.08982e-19)
(0.421095 0.780756 0)
(0.296049 0.341101 -1.47415e-19)
(0.484256 0.648523 8.54056e-19)
(0.576057 0.327528 -1.89372e-19)
(0.518783 0.461266 2.27173e-19)
(0.675936 0.517363 4.8213e-19)
(0.722731 0.559351 0)
(0.672252 0.570386 0)
(0.64035 0.527271 0)
(1.0129 0.62042 8.68117e-20)
(0.926301 0.562126 -5.09382e-19)
(0.952271 0.593229 3.83065e-19)
(0.981049 0.533283 -3.95094e-19)
(1.09018 0.499745 0)
(1.09891 0.591393 -9.57183e-20)
(0.856638 0.419249 -8.29363e-19)
(0.854301 0.406845 -1.02843e-18)
(0.784942 0.401866 6.29749e-19)
(0.794091 0.39009 -6.40592e-19)
(0.84219 0.345457 -5.1983e-19)
(0.787846 0.341634 6.35382e-19)
(1.02678 0.00620445 -4.95883e-19)
(1.02648 0.0064367 1.00943e-18)
(1.02957 0.000331901 6.28961e-19)
(1.03376 0.00123265 -7.57564e-19)
(1.03395 0.00937067 0)
(1.03023 0.0100553 -1.23246e-18)
(0.0641907 1.63841 1.86306e-20)
(0.0527971 1.59091 0)
(0.0912716 1.68756 1.25539e-19)
(0.0985405 1.66864 -1.11196e-19)
(0.0926655 1.5501 2.63669e-20)
(0.09195 1.55175 0)
(0.0134774 1.69634 0)
(-0.00258233 1.51298 1.12052e-20)
(-0.000976749 1.45952 -1.00746e-20)
(-0.00820503 1.56596 5.33651e-21)
(0.00241496 1.88768 1.65157e-20)
(-0.00961717 1.94098 -4.18338e-21)
(0.496641 1.3522 -2.8178e-19)
(0.490402 1.3514 3.09773e-19)
(0.455253 1.30438 -3.44259e-20)
(0.436945 1.28063 7.9594e-21)
(0.643815 1.3116 0)
(0.558021 1.40233 1.03732e-19)
(0.574509 1.4092 -1.0099e-19)
(0.469601 1.29735 3.3621e-20)
(0.525228 1.24362 0)
(0.576528 1.20569 0)
(0.65272 2.40184 5.82567e-19)
(0.668423 2.44405 1.26015e-18)
(0.71277 2.45486 -8.68389e-19)
(0.608755 2.4288 -2.01883e-19)
(0.559365 2.51826 2.84244e-19)
(0.508702 2.49348 -7.57682e-19)
(0.977576 2.37027 -5.75133e-19)
(1.01104 2.38215 0)
(0.92507 2.16589 -6.58953e-19)
(1.05316 2.66825 0)
(1.05552 2.65483 0)
(0.592283 2.25012 -1.37808e-19)
(1.03344 3.14963 1.19652e-19)
(0.904636 3.02044 -2.14554e-20)
(0.256073 0.821325 0)
(0.278775 0.659986 -3.1833e-19)
(0.452927 0.622099 -3.21757e-19)
(0.372504 1.99347 0)
(0.458607 2.77617 -4.72636e-20)
(0.410849 2.53842 0)
(0.725868 0.669928 -8.34075e-19)
(0.809245 0.692301 1.111e-18)
(0.828846 0.632878 -1.09735e-18)
(0.702242 0.635168 -1.06425e-19)
(0.756234 0.59527 -4.35126e-19)
(0.998217 2.74711 -9.10081e-20)
(1.04065 2.81066 -1.71794e-19)
(0.627129 2.10906 7.21279e-19)
(0.578744 1.67875 -5.13171e-19)
(0.690839 1.8817 -4.14949e-19)
(0.984774 2.43153 -1.13196e-19)
(0.99243 2.42466 3.02336e-19)
(0.643807 1.81279 2.88276e-20)
(0.436668 1.30106 1.46896e-19)
)
;

boundaryField
{
    wall-4
    {
        type            noSlip;
    }
    velocity-inlet-5
    {
        type            fixedValue;
        value           uniform (1 0 0);
    }
    velocity-inlet-6
    {
        type            fixedValue;
        value           uniform (0 3 0);
    }
    pressure-outlet-7
    {
        type            zeroGradient;
    }
    wall-8
    {
        type            noSlip;
    }
    frontAndBackPlanes
    {
        type            empty;
    }
}


// ************************************************************************* //
