/*--------------------------------*- C++ -*----------------------------------*\
| =========                 |                                                 |
| \\      /  F ield         | OpenFOAM: The Open Source CFD Toolbox           |
|  \\    /   O peration     | Version:  2206                                  |
|   \\  /    A nd           | Website:  www.openfoam.com                      |
|    \\/     M anipulation  |                                                 |
\*---------------------------------------------------------------------------*/
FoamFile
{
    version     2.0;
    format      ascii;
    arch        "LSB;label=32;scalar=64";
    class       volScalarField;
    location    "86";
    object      p;
}
// * * * * * * * * * * * * * * * * * * * * * * * * * * * * * * * * * * * * * //

dimensions      [0 2 -2 0 0 0 0];

internalField   nonuniform List<scalar> 
918
(
0.558383
1.16888
0.000826256
0.557853
-0.0127372
1.13589
-0.514016
0.650758
0.538593
-0.106513
-0.0574998
0.540576
0.996407
0.762031
-1.12477
-0.0142874
0.652232
-0.382579
0.537727
-0.0731516
0.673237
0.545124
0.548147
0.538724
0.597858
0.735259
0.87736
0.0307879
0.0122572
0.0072009
-0.0122492
-0.0391947
-0.0340594
1.01955
1.07062
1.09331
0.5063
0.334691
-0.379601
-0.453708
-0.439416
-0.538697
0.652814
0.654605
-0.217662
0.652001
0.649637
0.525593
0.537964
0.538879
0.539885
0.538877
0.540254
0.402364
-0.107671
-0.138904
-0.087382
-0.0805161
0.0482699
-0.0561402
-0.0569309
-0.0566898
-0.0586368
0.455348
0.535069
0.531682
0.544796
0.554062
1.10843
1.08037
1.10651
1.02007
1.03663
0.974414
0.947106
0.782925
0.804712
0.747024
0.735274
-1.5528
-2.49756
-0.538479
-0.289699
-0.0107887
-0.0126013
-0.00733295
0.649565
0.650763
0.652418
0.654154
1.07833
-0.379717
-0.482524
0.537873
0.536684
0.544988
0.54569
0.541712
0.540801
-0.0645699
-0.061949
-0.0598158
-0.0678635
-0.0647952
0.645224
0.651902
0.53925
0.53625
0.561841
0.582492
0.572231
0.277837
0.608663
0.624795
0.570464
0.73136
0.722943
0.732722
0.850846
0.814562
0.914643
0.937756
0.0187808
-0.000410233
-0.0185307
-0.0215665
-0.020842
0.502127
0.494658
0.522567
0.509741
0.512252
0.252066
0.119585
0.419249
0.443769
-0.299322
-0.367818
-0.431713
-0.461566
-0.569258
0.614971
0.655305
0.652642
-0.226815
-0.154924
-0.289828
-0.0815376
-0.144943
0.515837
0.522866
0.517856
0.533433
0.527894
0.52986
0.542243
0.539311
0.540872
0.464406
0.587771
0.328656
0.292932
-0.243582
-0.154446
-0.242503
-0.0701246
-0.0675711
0.0627128
0.0886739
0.0347143
0.022751
-0.0635567
-0.0590809
-0.0609928
-0.0583966
-0.059473
0.448051
0.436756
0.46807
0.475648
0.521793
0.523221
0.527597
0.525692
0.897952
0.920169
0.927821
0.901696
-3.47993
-6.24865
0.0324305
0.167629
-0.00709092
-0.00996219
0.00181472
-0.00638935
-0.000418773
-0.00228086
-0.0130567
-0.0143806
-0.00895229
-0.00792459
0.644604
0.645252
1.00136
1.00945
0.97605
0.929195
0.526161
0.528195
0.533664
0.529565
-0.0602277
-0.0607419
-0.0601645
0.649445
0.647879
0.648986
0.239074
0.148697
0.329184
0.358543
0.638231
0.627554
0.636553
0.629414
0.665673
0.945097
0.963298
0.961586
0.970004
1.01413
1.0306
0.995832
0.481505
0.491523
0.486452
0.525377
0.523299
0.524134
0.520614
0.52159
0.519768
-0.0301331
-0.407945
0.490914
0.506867
0.493324
0.494772
0.695181
0.773924
0.653755
0.654476
0.654192
-0.0114216
-0.0700008
0.247891
0.21341
0.38722
0.423854
0.402667
0.869038
0.829571
0.879684
0.852893
0.814479
0.839863
-0.359565
-1.85158
-0.974807
0.513956
0.32985
0.416053
0.00432112
-0.0125773
-0.00787774
1.00219
1.07343
0.643521
0.819022
0.821028
0.703128
0.732623
0.787811
0.714774
0.748532
0.782393
0.76323
0.570538
0.50414
0.521017
0.84271
0.898132
0.117944
0.0552154
0.0115123
0.107976
0.1659
0.139636
1.03314
0.951304
1.02096
0.536013
0.536739
-0.00808864
-0.0228368
0.541006
0.541064
-0.0142971
-0.00417968
0.399682
-0.831913
0.0952148
0.529627
0.519444
0.536611
-0.0921876
0.353731
-0.056502
0.0442392
-0.0140807
0.530948
0.466512
0.425499
-0.002954
-0.0239409
-0.0635454
-0.212929
0.533682
0.531987
0.536078
0.537013
0.537698
-0.0221809
-0.0183026
-0.0121671
-0.0577748
-0.0485998
-0.0639839
0.500469
0.519621
-0.171656
0.53623
0.538369
0.538186
0.531477
0.537092
0.535354
-0.0145334
-0.018585
-0.0212797
0.218595
0.352007
0.636071
0.720052
0.609376
0.387175
0.154349
0.541116
0.603432
0.510493
0.662384
0.650584
0.647597
0.1606
0.00971179
0.170166
0.112051
0.527485
0.526229
0.517693
0.514647
0.531479
0.52959
0.534156
0.531189
0.534142
0.535517
-0.0487593
-0.0746436
-0.0845516
-0.151348
0.308469
0.569189
0.253623
0.282773
0.1392
-0.0519395
-0.0536301
-0.0538908
-0.0605395
-0.00237456
-0.0298795
0.0385431
0.0382143
0.00878123
-0.0167051
-0.0131958
-0.0248245
-0.0179522
0.524213
0.524103
0.528995
0.537572
0.476203
0.479986
0.444675
0.465557
0.450694
0.38908
0.424776
0.399836
-0.00862089
-0.00116698
-0.00509963
-0.0225894
-0.0192229
-0.0394216
-0.0362522
-0.031536
-0.0277106
-0.0344814
-0.0568124
-0.0618157
-0.170576
-0.286761
0.988072
0.907189
0.140063
0.522821
0.529287
0.526043
0.530987
0.534117
0.534909
0.53261
0.529153
0.519935
0.521616
0.518133
0.519055
-0.102109
-0.244717
-0.0729933
-0.148995
0.147447
0.629342
0.363903
0.298691
0.294245
0.524053
0.905561
0.686609
0.651555
0.637994
-0.346694
0.0382449
-0.284725
0.327316
0.158649
0.636016
0.685124
0.707076
0.654995
0.608411
-0.0964936
0.556915
-0.0773881
-0.0243002
0.17835
0.0522565
0.639579
0.639531
0.645695
0.63955
0.648547
0.641506
0.621413
0.623458
0.639397
0.646372
0.479599
0.249234
0.199369
0.160896
0.644523
0.513373
0.561901
0.488885
0.522733
0.525324
0.523994
0.505305
0.5129
0.508416
0.514991
0.518554
0.527187
0.527675
0.522915
0.525046
-0.0553713
-0.0611773
-0.0254067
-0.135258
-0.128061
-0.190471
-0.0594624
0.0755835
0.0369514
0.237497
0.340705
0.0525169
-0.0565981
-0.0294975
0.0140592
0.18056
0.209364
0.0732176
0.159694
0.152486
0.13291
0.235875
0.238632
-0.033241
-0.0340016
-0.0381763
-0.0418001
0.0155271
0.0874358
0.0965522
-0.0137838
-0.0176457
-0.0522108
-0.0554878
-0.0239929
-0.0289521
-0.0246465
0.00345967
-0.0570286
-0.0248749
-0.0113454
-0.0137144
-0.0122924
-0.0175364
0.518877
0.520656
0.52086
0.529924
0.542036
0.556722
0.522339
0.498477
0.489233
0.492237
0.465151
0.475475
0.471313
0.484949
0.506252
0.514765
0.513063
0.515871
0.498252
0.499961
0.486443
0.490123
0.465183
0.445732
0.433653
-0.0470583
-0.00867853
-0.0172638
-0.0419489
-0.0122856
-0.0240417
-0.0167338
0.00266853
-0.0144959
-0.0149865
-0.0251096
-0.0327135
-0.0323832
-0.0722695
0.0150319
-0.184948
-0.219561
-0.29332
0.890602
1.01485
0.808914
0.581801
0.6032
0.846658
0.930311
0.541561
0.734567
0.757365
0.589478
0.856726
0.527676
0.527268
0.524868
0.524343
0.525565
-0.00578519
0.101635
0.0973308
0.162709
0.279268
0.390092
0.323757
0.198106
0.327369
0.329533
0.62166
0.633551
0.589979
0.614172
0.615134
0.42573
0.501385
0.553058
0.514219
0.566745
0.588578
0.542197
0.575717
0.524449
0.479645
0.475744
0.425428
0.44495
0.420389
0.403584
0.51828
0.494871
0.505818
0.495957
0.518103
0.54434
0.5414
0.564021
0.57907
0.498752
0.453846
0.463127
0.493342
0.454968
0.470453
0.486254
0.236711
0.139562
0.222316
-0.0617518
0.00608293
-0.00529597
-0.0546774
-0.0016143
0.282168
-0.406904
-0.384067
-1.0086
0.507697
0.945871
0.560008
0.540646
0.64862
0.63806
0.64321
0.659288
0.65194
0.632952
0.640658
0.645813
0.589353
0.61034
0.625058
0.621925
0.524485
0.379327
0.379615
0.326524
0.196626
0.237111
0.432313
0.356888
0.282101
0.282151
0.456832
0.342841
0.413703
0.446045
0.376941
0.331586
0.53535
0.601508
0.594607
0.568417
0.477195
0.488525
0.513656
0.547349
0.570459
0.604972
0.514405
0.520367
0.521596
0.519066
0.516328
0.519429
0.519687
0.522274
0.522887
0.525908
0.524979
-0.0527715
-0.0394625
-0.0499662
-0.0614252
-0.017788
-0.0203126
0.0230149
0.0107638
-0.0165852
-0.012054
-0.0330243
-0.0370631
-0.0342603
-0.027002
0.10278
0.115237
0.0997493
0.0601384
0.251526
0.38083
0.455413
0.330131
0.224968
0.248994
0.267153
-0.0140831
0.0105102
-0.00201428
0.037845
0.0304734
-0.0438806
-0.0483983
-0.0451446
-0.0353743
-0.0272877
-0.0477317
-0.0572199
-0.0465773
-0.0503371
-0.0543437
-0.0603225
0.50076
0.494251
0.49585
0.489811
0.488518
0.502702
0.507002
0.509003
0.514513
0.516756
0.506851
0.51228
0.516214
-0.018646
-0.0417767
-0.0446133
-0.0399908
-0.0396516
-0.0372935
-0.0393897
0.125682
0.0572561
0.0606625
0.0132994
-0.120157
-0.0618989
0.494444
0.492855
0.481137
0.723187
0.572459
0.493687
0.590687
0.696421
0.2789
0.474645
0.310577
0.88932
0.786793
0.932826
0.543523
0.249437
0.416395
0.455551
0.271438
0.349165
0.323744
0.213563
0.243853
0.284301
0.381777
0.268887
0.246881
0.00335195
0.194117
0.304276
0.286418
0.409544
0.469406
0.271032
0.190252
0.145065
0.606111
0.625392
0.638697
0.611095
0.633851
0.582755
0.574682
0.590107
0.598321
0.59189
-0.737675
-0.443793
-1.39182
-0.718835
-0.261033
0.538127
0.513963
0.771941
0.642669
0.668411
0.652859
0.61585
0.587478
0.613413
0.633168
0.33788
0.448748
0.423551
0.430263
0.333128
0.262679
0.562441
0.56023
0.593304
0.617464
0.588842
0.619505
0.512207
0.511927
0.511391
0.507634
0.5059
0.508238
0.0581706
0.0255276
0.0670553
0.0494834
0.0272058
0.0153165
-0.0206177
-0.0310054
-0.0374377
-0.0356749
-0.0208831
-0.0171328
0.17575
0.112082
0.0322859
0.0608708
-0.000367262
-0.0688792
-0.0886799
0.0181616
0.114543
0.104654
0.407203
0.655596
0.475841
0.643185
0.486433
0.542062
0.469239
0.460041
0.484394
0.382022
0.462575
0.260257
-0.249338
-0.159087
0.798013
0.807791
0.581989
0.41104
0.176928
0.350221
0.538981
0.467713
0.502554
0.571052
0.55736
0.0374044
0.0919645
0.388049
0.614739
0.245376
0.236046
0.229525
0.416738
0.333319
)
;

boundaryField
{
    wall-4
    {
        type            zeroGradient;
    }
    velocity-inlet-5
    {
        type            zeroGradient;
    }
    velocity-inlet-6
    {
        type            zeroGradient;
    }
    pressure-outlet-7
    {
        type            fixedValue;
        value           uniform 0;
    }
    wall-8
    {
        type            zeroGradient;
    }
    frontAndBackPlanes
    {
        type            empty;
    }
}


// ************************************************************************* //
