/*--------------------------------*- C++ -*----------------------------------*\
| =========                 |                                                 |
| \\      /  F ield         | OpenFOAM: The Open Source CFD Toolbox           |
|  \\    /   O peration     | Version:  2206                                  |
|   \\  /    A nd           | Website:  www.openfoam.com                      |
|    \\/     M anipulation  |                                                 |
\*---------------------------------------------------------------------------*/
FoamFile
{
    version     2.0;
    format      ascii;
    arch        "LSB;label=32;scalar=64";
    class       surfaceScalarField;
    location    "86";
    object      phi;
}
// * * * * * * * * * * * * * * * * * * * * * * * * * * * * * * * * * * * * * //

dimensions      [0 3 -1 0 0 0 0];

oriented        oriented;

internalField   nonuniform List<scalar> 
1300
(
3.75095
5.62643
-3.29233
3.75095
-7.75047
5.62643
-4.40842
4.40842
-0.333555
0.333555
1.87639
1.87457
-2.69252
2.69252
-2.02451
2.02451
-2.52175
2.52175
-5.24649
5.24649
-5.06949
5.06949
4.64956
-4.64956
-6.31391
6.31391
-0.937062
0.937062
-3.69086
3.69086
3.16958
-3.16958
-1.94624
1.94624
0.0992517
-0.0992517
-0.553467
4.30442
3.19749
3.19749
-2.00722
2.00722
-4.87031
4.87031
6.21807
-6.21807
5.27025
-5.27025
-1.97792
-2.48863
1.80211
-11.4649
-5.94836
-5.94836
-8.44036
8.44036
-2.81393
2.8125
2.94646
-2.94646
-1.76596
1.76596
-4.37285
-0.0355669
-4.37285
4.37647
0.0319418
4.37647
-0.446942
0.113387
-0.446942
4.01619
-4.01619
0.224122
0.109433
0.224122
3.0654
-3.0654
-1.87712
3.75351
1.87383
-1.8719
6.17632
-1.87905
3.75362
-6.01347
6.01347
-2.93775
0.245229
-2.93775
2.48017
0.212346
2.48017
-6.85203
6.85203
-2.08354
0.0590319
-2.08354
1.97136
0.0531507
1.97136
2.88217
-2.88217
-2.62794
0.106191
-2.62794
2.39272
0.129026
2.39272
0.353498
5.27293
-5.97993
8.79243
-5.27293
0.0264448
5.20833
0.0381557
5.20833
-5.10613
0.0366409
-5.10613
5.0126
0.0568826
5.0126
4.73232
-0.0827681
4.73232
-4.76973
0.120172
-4.76973
-3.3667
-4.05645
-6.46542
0.151513
-6.46542
-1.02613
0.0890717
-1.02613
0.825002
0.112061
0.825002
-3.68848
3.68848
-4.11344
0.42258
-4.11344
3.12396
0.0456139
3.12396
1.86849
1.88247
5.61944
-5.61944
2.44986
-1.90374
-0.0425001
-1.90374
-2.03239
-3.23785
2.03239
-0.0861542
-0.132276
0.231527
-0.132276
3.15945
0.0380316
3.15945
2.23576
0.15696
-2.23576
0.228539
3.28103
-3.28103
1.33494
0.672283
1.33494
-5.56271
5.56271
4.95719
0.0554138
-4.95719
0.0868803
6.15675
0.0613147
6.15675
-6.19954
-0.0185252
-6.19954
2.525
-5.01363
-2.65198
6.13091
0.182997
-6.13091
0.182552
2.91844
0.0280115
2.91844
-2.91801
2.91801
-2.98487
0.0384118
-2.98487
-2.16437
0.398409
-2.16437
1.46817
0.297794
1.46817
-4.27619
-0.0966595
-4.27619
-4.26464
0.151192
4.26464
0.111839
1.13133
-1.13133
-0.581437
0.134495
-0.581437
-4.1414
-0.134785
4.1414
-0.125216
-3.90347
-0.112714
-3.90347
-3.02464
0.0397676
3.02464
0.0407692
3.11291
0.0465411
-3.11291
0.047509
-1.87081
3.75328
-1.88014
3.75397
-5.63423
-0.379235
-5.63423
6.3244
-0.310938
6.3244
3.33143
0.359437
-3.33143
0.393681
2.30865
0.171522
2.30865
-6.813
-0.0390278
-6.813
6.83814
0.0138852
6.83814
2.17756
0.131088
-2.17756
0.0940188
1.93024
0.0411149
1.93024
2.90288
-0.0207105
2.90288
-2.87602
-0.00614722
-2.87602
2.79017
-2.79017
2.71516
0.0750176
-2.71516
0.087221
-11.1331
11.1146
-0.0352859
-11.0978
5.17305
5.17305
4.15767
0.574658
4.15767
-4.98907
0.219344
-4.98907
2.69242
-5.3444
3.10511
-6.47181
4.65939
-16.1243
4.28412
-8.34057
6.70589
-6.70589
6.59467
0.111223
-6.59467
0.129247
-1.14487
0.11874
-1.14487
-3.08783
-0.600655
-3.08783
4.32901
-0.640524
4.32901
-3.02791
3.02791
-3.07737
0.0494626
3.07737
0.0465916
1.90073
0.0295117
-1.90073
-0.00300753
0.156324
0.0677975
-0.156324
0.0240486
3.49658
-0.215553
3.49658
-3.08141
-0.199614
-3.08141
-1.24463
0.0997508
1.24463
0.0903122
-5.81367
0.250955
-5.81367
-11.1908
0.0929133
-11.1526
-6.10663
-6.10663
2.33373
11.1262
-2.89385
0.0178296
2.89385
0.0245926
2.97446
0.0534527
-2.97446
0.056447
-2.85718
0.0670081
2.85718
0.0608276
-2.53899
0.374614
-2.53899
-1.06934
1.06934
-1.23274
0.163395
1.23274
0.23543
1.40527
-0.273945
1.40527
0.706838
0.118163
-0.706838
0.125401
-3.8006
-0.102877
-3.8006
6.56012
-0.235713
6.56012
-2.96548
-0.115936
2.96548
-0.0625966
-0.0332715
11.1479
-5.13977
0.0336464
5.13977
-11.2092
11.2428
-3.20896
0.669972
3.20896
0.948708
5.28291
0.279804
-5.28291
0.293838
6.78936
0.0487842
-6.78936
0.0834666
-2.5956
-0.492227
-2.5956
-5.05326
-0.580967
5.05326
-0.724258
-11.4746
-0.204867
11.6794
-11.4177
6.01854
0.138219
-6.01854
11.3811
-1.02958
-0.101747
1.02958
0.0397628
1.73356
-0.328282
1.73356
3.6957
-0.199125
-3.6957
-0.104893
-6.71503
-0.0979648
6.71503
-0.154918
-2.15072
-0.444881
2.15072
-0.417162
-4.26713
4.30517
1.90919
-2.37562
-2.63801
-5.61347
1.85184
1.90144
4.3017
-10.1229
-6.00139
-9.94039
7.26062
-6.96678
-9.23312
9.15035
7.91402
-8.02674
-5.78466
5.83125
6.483
-6.44223
1.87884
1.87466
8.03433
-7.7891
-15.5743
15.195
7.57666
-7.51762
15.7276
-15.7667
-17.8093
17.8581
-5.70737
5.81356
-6.74095
6.7348
-6.97734
6.91475
-2.83091
-3.64089
13.0837
-12.9322
8.63353
-8.67603
-8.63506
9.05764
3.38261
0.922559
3.42915
-1.88213
3.76097
-1.87149
3.78068
2.75174
-5.58265
2.59266
-5.23067
4.39466
4.23887
-4.30851
-1.30496
-5.925
5.95301
-5.81391
5.87474
9.16273
-9.19829
-1.88518
3.75984
-1.86879
3.77023
-3.42499
-2.35967
3.37938
0.922327
8.04989
5.03383
-8.23289
-1.7075
-8.05071
7.85159
-8.23573
8.03612
-0.433141
5.81886
-5.38572
4.43717
-1.56428
7.38314
5.69634
5.91569
5.86546
-5.58566
1.10132
-6.48704
-6.40016
-2.20044
2.33493
2.09917
-1.98974
6.16321
1.75081
6.038
-5.7723
-2.25444
-5.87517
3.82039
2.01086
3.86985
4.07856
2.40443
4.11833
3.03039
-3.03602
0.00562275
-3.05672
6.08711
0.723825
-5.41638
-4.49406
4.982
3.05234
5.19434
-5.56396
-2.22514
-5.17028
-9.522
-6.05227
-10.103
10.064
5.13108
9.75302
-11.9325
11.7776
4.81159
2.76507
4.86474
-4.95741
-2.56021
-4.86339
11.6304
-2.64533
-8.98509
-10.2967
-7.51266
10.2828
5.44487
10.9388
6.91931
11.0222
4.417
7.21342
-9.86188
2.34922
-3.86799
-1.83938
-3.78077
3.67597
2.13759
3.805
-4.21769
-2.52326
-4.19986
-4.296
-2.68134
4.31671
2.41809
-4.41853
-3.8172
4.53447
2.38028
4.03829
-10.0397
4.30228
-7.94318
-9.17562
-3.75659
-9.04637
3.5551
2.60638
-6.16148
-2.02755
8.56319
-4.32432
7.25823
-5.21075
-3.46528
-5.21376
-6.89849
-1.73657
-6.74729
-8.86305
8.37082
-9.1589
8.51838
12.4816
-5.6308
-6.85076
-3.96848
-2.47375
3.92097
-0.491823
-3.71045
3.71608
0.0505205
3.8312
4.75376
4.26194
-3.88487
-1.92904
-3.82842
3.82467
2.05007
3.89168
6.85447
2.30826
6.88641
-6.63173
-2.56656
-6.72839
9.0214
-8.62299
2.83101
-2.73126
5.40355
2.63257
-5.18799
-2.86272
6.20806
-3.22018
-2.98788
-12.202
10.5213
1.68063
-4.81884
-0.381667
-0.480919
-5.48524
-3.74788
5.36507
0.550617
11.072
7.32408
-5.51108
5.76204
6.16836
6.22378
-0.176382
5.79447
-5.1245
5.25699
-2.62166
-2.63533
5.49052
-5.62531
-1.23786
-5.54457
4.30671
0.412688
1.40529
-1.17376
-1.74781
-0.452626
-1.62241
1.19013
0.909044
1.25793
0.964309
1.37062
-2.94628
0.505728
2.44055
-1.98197
-1.48401
-3.85809
-1.13966
4.99776
5.74815
2.10344
-5.64325
-0.231921
2.50551
-2.39345
-0.810617
-3.04747
2.23878
-3.0494
-3.66375
-2.10102
5.76477
-3.36977
-0.458649
3.31632
0.55353
-3.82731
-2.0977
3.78889
0.329437
-3.12854
6.19109
-3.06256
-5.05758
2.52743
3.55968
4.53829
-4.78957
2.44783
2.34173
-1.22989
4.24865
0.945691
4.42017
-6.95457
4.72943
5.81489
3.24275
-6.17433
1.00405
-5.95053
8.55188
-7.37916
-1.17272
4.17001
4.38187
7.04498
5.43658
-5.66191
12.7069
-1.20923
-6.16994
7.15976
-3.91701
4.85699
-8.774
-10.2936
4.12364
-9.11254
10.8864
-1.7739
-3.61664
-8.31583
12.7292
-1.20148
-11.5277
8.55155
-4.29098
-4.41111
8.70209
-6.93631
6.97133
-1.99123
-4.9801
-10.0821
-5.68458
10.1801
1.5975
-9.94317
12.2924
-2.72976
4.1249
0.739839
4.16601
3.30554
-5.49126
2.18572
3.63078
-5.622
2.07861
-7.56987
-6.71928
12.0501
-5.33087
-10.4759
-9.49826
-0.977614
2.53536
9.75704
-9.45467
7.41116
2.04351
3.30059
0.591088
-3.37561
-0.405165
0.234055
4.51308
-4.74714
4.03905
4.19601
3.26294
1.25014
3.84571
2.10731
-3.8703
-0.32956
-4.16437
1.48303
-1.74628
-3.69509
5.17812
-4.06753
0.372437
-2.74405
-3.49749
6.24154
-4.58342
3.03485
3.15625
5.08491
-4.9136
1.4161
-2.39274
-2.52085
2.65143
-4.39771
1.99504
3.18308
4.37533
0.558128
5.87579
6.17435
-8.48217
0.538997
11.2082
-9.50068
2.46148
8.56076
-9.87264
0.374388
-8.67199
0.997738
-5.32205
-5.16374
5.20652
-6.9431
-3.56747
6.226
0.660413
-6.33784
-0.409457
-6.02462
-2.83843
-6.4695
-3.03766
-6.12124
-8.69957
-1.64893
-7.05064
6.72189
-6.67017
-3.4328
7.39443
1.12394
-7.39809
7.29634
-7.47661
7.14833
0.0954777
3.6206
4.35741
1.88367
-2.39071
4.27437
-5.12748
7.43574
-8.73815
3.61067
4.21822
-6.78478
-4.51993
5.01159
4.00981
5.30939
8.86372
-10.3224
1.45871
-10.6246
11.9584
-1.3339
-16.375
5.75044
-7.51127
2.43243
0.39858
2.55117
0.541103
2.49865
-3.03976
-2.19015
-2.09984
-2.44314
-3.46454
5.90768
1.08247
-3.5325
2.45002
-3.56763
4.65011
-0.221793
-3.31071
5.26607
-2.76741
5.66465
-3.78943
1.87522
3.44064
5.75384
-2.3132
4.39563
-1.76306
1.93163
-4.24483
-1.53291
-2.95501
5.0926
-3.28653
3.65897
-0.345457
4.00443
-4.04596
0.825783
-0.783017
3.41299
3.64153
4.31675
-3.06661
2.91596
-4.67903
-1.32887
-4.1209
-0.937822
-0.252171
-3.69052
3.94269
5.96306
-6.21523
-5.22583
9.51094
-4.28511
7.67974
-5.37322
-2.30652
-4.2426
-4.38039
3.86798
1.92649
9.60623
0.207616
-5.58083
-4.91688
-3.96817
3.09524
2.16175
-1.69879
3.37942
2.17971
-0.77442
0.431151
0.826775
1.77342
-1.34227
0.322936
1.45049
-0.850824
1.68873
0.816776
-1.80689
0.184483
-1.35084
3.58962
1.08971
-1.99876
0.656484
0.976844
-3.59851
5.08141
-2.69596
-2.38545
6.05825
1.14301
-3.83897
4.40156
-3.98887
2.40473
-3.54439
-1.43424
-5.42311
-3.6723
-2.51436
4.96439
-3.39332
5.49676
1.30064
-5.26484
6.56547
-3.73206
1.63104
-3.04006
3.85684
-0.918047
-2.12202
2.90233
2.86244
-3.09069
0.0432206
-0.188364
2.40423
-2.59259
-0.645167
-2.62714
-4.57371
4.90315
-2.10509
4.55293
2.16928
-1.91733
6.47026
1.80863
-3.72596
-3.24895
-3.7076
-1.38422
3.15407
-0.569432
-4.29396
-5.54953
4.16287
0.257299
-7.07243
7.88993
-0.817501
-4.02009
-0.709341
4.87936
-6.09115
0.469144
-4.01253
3.8774
4.82309
5.08039
-11.3074
-0.220256
-6.17637
1.1203
-7.29668
5.50217
-3.52819
7.65183
-10.3026
6.86984
-9.17869
6.47911
-0.817568
6.23751
-4.05179
2.74758
-8.43216
-6.83465
5.56191
-2.79685
6.30175
-3.17549
9.47725
-5.90525
5.34095
4.1363
-1.0265
-4.18727
-5.34921
4.32271
-0.00825837
4.15775
4.98037
-2.87307
4.65082
2.27015
-4.6629
-2.12756
-6.49633
1.83344
-3.34009
-1.92137
3.75481
3.16354
3.75463
1.23396
-3.34946
7.20408
-8.18169
-1.87321
-3.29053
5.34135
-1.01864
3.44598
-6.73651
-1.87607
4.77702
-0.776514
-4.0005
0.853787
-4.42126
1.6762
-6.09746
5.2669
-5.67635
2.22133
-9.7326
-5.17676
-5.137
-2.25729
-5.21932
-7.55351
5.29623
-1.80308
5.49327
-8.48206
7.70555
-3.47639
8.77261
-5.42004
-1.04946
5.8372
1.31113
10.0837
0.228542
-4.74847
-1.92694
3.82938
-1.90244
1.1683
-3.46198
0.367405
2.4994
3.55885
-6.80611
0.0213238
-4.72715
-3.91148
7.92128
5.59947
11.5625
1.2401
9.09926
-1.17798
10.3394
4.13141
4.36684
-2.97851
4.43721
0.964182
4.57485
-0.927336
2.80256
1.62383
1.7129
0.680544
2.30392
1.33761
3.1297
0.0899451
-2.0099
4.61554
-8.58371
-0.965299
-8.00905
1.1413
5.70262
-4.56132
2.91112
-0.749371
1.00868
-0.144435
-1.15621
1.30064
-2.77976
-1.93063
-0.480142
-1.69722
2.3537
1.8924
-1.87356
-0.906202
0.350873
-4.02318
3.19352
-3.1503
-0.287859
6.27762
-2.81329
0.220699
-1.18226
-2.40644
-2.85907
2.67458
6.17636
0.293895
3.11381
5.19705
3.09935
0.22628
3.88015
-5.65405
-3.68972
-5.8743
-0.372129
4.50723
1.76463
7.9924
5.90093
4.88229
-1.85422
-10.0359
6.50296
-2.06574
5.16906
-1.16856
-4.9289
5.05564
2.3801
-5.71605
0.0396981
-4.8892
-6.95495
-0.509994
8.21554
-9.57375
8.52429
5.68585
1.36478
-4.3959
-0.741103
4.2325
0.134335
10.4737
-1.12993
-6.69346
7.82338
-4.57269
3.60739
0.727336
2.65209
2.02798
1.27861
-5.41485
-9.97617
-2.07473
-1.52378
-4.46017
0.537583
-2.42998
6.21192
-2.60453
3.90539
5.21886
6.22754
-2.12592
-4.08931
6.41103
-2.50563
3.72191
)
;

boundaryField
{
    wall-4
    {
        type            calculated;
        value           uniform 0;
    }
    velocity-inlet-5
    {
        type            calculated;
        value           uniform -3.75095;
    }
    velocity-inlet-6
    {
        type            calculated;
        value           uniform -5.62643;
    }
    pressure-outlet-7
    {
        type            calculated;
        value           nonuniform List<scalar> 8(3.29233 7.75047 4.46655 9.66284 7.42315 5.17698 5.79752 8.9435);
    }
    wall-8
    {
        type            calculated;
        value           uniform 0;
    }
    frontAndBackPlanes
    {
        type            empty;
        value           nonuniform List<scalar> 0();
    }
}


// ************************************************************************* //
