/*--------------------------------*- C++ -*----------------------------------*\
| =========                 |                                                 |
| \\      /  F ield         | OpenFOAM: The Open Source CFD Toolbox           |
|  \\    /   O peration     | Version:  2206                                  |
|   \\  /    A nd           | Website:  www.openfoam.com                      |
|    \\/     M anipulation  |                                                 |
\*---------------------------------------------------------------------------*/
FoamFile
{
    version     2.0;
    format      ascii;
    arch        "LSB;label=32;scalar=64";
    class       volVectorField;
    location    "86";
    object      U;
}
// * * * * * * * * * * * * * * * * * * * * * * * * * * * * * * * * * * * * * //

dimensions      [0 1 -1 0 0 0 0];

internalField   nonuniform List<vector> 
918
(
(0.98516 -0.000508447 0)
(0.00501919 2.96624 0)
(0.00765998 0.881967 0)
(0.979705 0.00214499 0)
(-0.0122958 2.06099 3.7998e-20)
(-0.00705235 2.9488 -2.43055e-18)
(0.822981 1.16916 4.51606e-19)
(0.100683 0.072279 -1.44957e-20)
(0.999909 -0.000275271 0)
(0.0666723 0.739004 0)
(0.0193024 0.479527 0)
(0.731744 0.00669148 0)
(0.011107 2.93041 0)
(0.00252598 2.79531 0)
(-0.0180436 3.14578 7.82684e-19)
(-0.0212437 1.91803 1.26393e-20)
(0.286987 0.0607948 1.01939e-18)
(0.189459 1.14547 3.17487e-19)
(0.96271 0.00501504 0)
(0.00616387 0.423002 0)
(-0.0053493 0.0157918 -6.67498e-19)
(1.00197 -0.00497408 0)
(1.00023 -0.00978299 0)
(0.975741 -0.00643844 0)
(0.598114 0.0307863 0)
(0.0134412 2.6432 0)
(-0.0148739 2.91001 8.91627e-19)
(0.0128891 0.925184 0)
(-0.0211036 1.18423 0)
(0.0151791 0.909442 0)
(-0.0155906 2.58528 0)
(-0.00122056 2.11501 -3.03472e-20)
(-0.0113141 1.89724 0)
(-0.0206009 2.98761 -8.72504e-23)
(-0.0166802 3.00528 1.88881e-18)
(0.00209604 3.00016 0)
(0.87148 -0.00965985 0)
(0.400651 0.929351 1.81458e-19)
(0.809933 1.18254 -5.17152e-19)
(0.960893 1.02955 5.63196e-19)
(0.677314 1.27432 -1.05259e-19)
(0.676928 1.24812 6.02594e-19)
(0.126273 0.12012 1.41798e-20)
(0.138078 0.0589045 0)
(1.16753 0.566801 0)
(0.0910317 0.0886436 6.36601e-20)
(0.0650277 0.0491034 -6.62953e-20)
(0.919931 -0.00745732 0)
(1.00027 0.00016298 0)
(0.999909 0.000339897 0)
(1.00363 -0.00775679 0)
(1.00096 -0.000917407 0)
(1.00017 3.84784e-05 0)
(0.0727188 1.82633 -7.69077e-19)
(0.0326669 0.945724 0)
(0.0988173 0.817702 0)
(0.0151026 0.892598 0)
(0.0410661 0.658298 0)
(0.00714199 2.01626 0)
(0.00301897 0.771816 0)
(0.0191905 0.501339 0)
(-0.001842 0.759075 0)
(0.0129862 0.457641 0)
(0.842218 -0.0156621 0)
(0.842412 0.0271458 0)
(0.757803 0.0037612 0)
(0.800937 0.0294657 0)
(0.700884 0.0187177 0)
(0.0146773 3.00041 9.00406e-19)
(0.0114751 3.00811 0)
(0.00609868 3.00272 0)
(0.0135299 2.99738 1.02053e-23)
(0.00795647 2.95849 -1.33822e-18)
(0.0145019 2.98204 0)
(0.0108985 2.90355 0)
(0.0242083 2.93097 2.03567e-24)
(0.00476414 2.8251 0)
(0.0300681 2.91668 0)
(-0.00479722 2.74565 0)
(0.303281 3.53648 0)
(-0.131527 3.61663 0)
(0.136625 3.23561 -7.28351e-19)
(-0.0141229 2.97549 0)
(-0.0281062 1.98664 0)
(-0.00720631 2.16951 -1.24661e-20)
(-0.0151794 1.92652 7.43388e-21)
(0.337443 0.13767 -3.53926e-19)
(0.317581 0.0364697 -3.43989e-19)
(0.291649 0.140562 -1.06011e-18)
(0.251593 0.0665162 -6.88745e-19)
(0.22989 0.986213 0)
(0.273129 1.29554 -3.69525e-19)
(0.36788 1.23114 6.16733e-19)
(0.987423 0.00857932 0)
(0.941845 0.00580012 0)
(1.0003 0.000581794 0)
(1.00286 0.00931048 0)
(1.00301 0.00847454 -2.75128e-18)
(0.991906 0.00969466 2.07766e-18)
(-0.0145352 0.753068 0)
(0.00996321 0.428405 0)
(-0.0551253 1.00774 0)
(-0.0330141 0.804638 0)
(0.00135942 0.430194 0)
(-0.0944415 0.0827453 2.07266e-19)
(0.0375588 0.0565923 0)
(0.993556 -0.00836822 0)
(0.954476 -0.00653441 0)
(0.743593 0.0298026 0)
(0.678195 0.0283823 0)
(0.660698 0.0260312 0)
(0.972991 -0.00705812 0)
(0.586059 0.0739303 0)
(0.457595 -0.00215574 1.54441e-18)
(-0.0375841 2.86075 6.52652e-19)
(0.0409799 2.90991 0)
(0.0533772 2.88654 0)
(-0.00497249 2.70149 0)
(-0.0131734 2.98526 8.42785e-19)
(-0.017738 2.89502 0)
(-0.0153636 2.98807 -2.61616e-18)
(-0.0132825 2.92518 8.96055e-19)
(-0.0369549 1.35323 0)
(-0.0078839 1.38451 0)
(-0.00743035 2.13403 5.94589e-22)
(-0.00640947 2.09551 0)
(-0.0234662 1.90509 0)
(0.938714 -0.00735102 0)
(0.857682 -0.00997036 0)
(0.862669 0.00549934 0)
(0.94968 -0.00778376 0)
(0.884147 -0.00820086 0)
(0.511661 1.12193 -2.29021e-19)
(0.560886 1.17292 0)
(0.365525 0.874352 3.3748e-20)
(0.30858 0.733217 0)
(0.923484 1.06529 -1.55596e-19)
(1.04311 0.875149 3.18129e-19)
(0.360824 1.35807 0)
(0.52925 1.32969 0)
(0.550488 1.26819 0)
(0.121617 0.184821 -3.03642e-19)
(0.160101 0.114755 0)
(0.172327 0.0995307 1.89493e-19)
(1.01375 0.929317 0)
(1.08822 0.78268 0)
(1.11361 0.724429 -2.54395e-19)
(1.14687 0.626296 0)
(1.19683 0.409153 5.79036e-20)
(0.957815 -0.00868026 0)
(0.962547 -0.0100192 0)
(0.901812 -0.00798827 0)
(0.984213 -0.00913907 0)
(0.974729 -0.00932084 0)
(0.937156 -0.00637506 0)
(1.00019 0.00234131 0)
(1.0009 0.00141796 0)
(0.999909 0.000856184 0)
(0.0355372 2.07199 4.26317e-19)
(0.118449 1.76942 0)
(0.0181972 2.18542 6.54595e-19)
(0.0459203 1.88059 -5.44954e-19)
(0.107013 1.15 -2.59985e-19)
(0.0496989 1.02769 0)
(0.143549 0.983185 0)
(0.00907276 0.845495 0)
(0.0206401 0.592919 0)
(-0.000823065 2.24171 -7.67113e-22)
(0.0161932 2.02004 0)
(-0.0017548 2.24458 -2.50311e-20)
(0.00851601 2.02612 3.67296e-20)
(0.00559917 0.816425 0)
(0.00372657 0.792513 0)
(0.0160626 0.540506 0)
(-0.00814132 0.752054 0)
(0.00616927 0.440067 0)
(0.938917 0.00987891 0)
(0.851072 -0.0146068 0)
(0.927953 0.000501305 0)
(0.842932 -0.0128708 0)
(0.809515 0.000816154 0)
(0.899274 0.0208135 0)
(0.875339 0.0242769 0)
(0.783245 0.00106214 0)
(0.00564239 3.06485 -8.37069e-21)
(0.0167612 3.05772 0)
(0.0146898 2.969 0)
(0.00867898 2.87616 0)
(0.917901 3.94667 0)
(1.23048 3.2807 9.22427e-19)
(0.0685177 3.06786 0)
(-0.029549 2.90133 0)
(-0.0117337 1.40771 0)
(-0.0339872 1.70148 0)
(-0.0204155 1.53944 0)
(-0.031376 2.54478 -9.37365e-21)
(-0.0161232 2.23909 0)
(-0.0215738 2.38514 0)
(-0.00101794 1.95396 7.90688e-22)
(-0.00374205 2.24087 -1.18944e-20)
(-0.00560671 2.20474 -7.74654e-21)
(-0.00894878 1.93854 0)
(0.387658 0.121322 5.41142e-19)
(0.367004 0.0225193 -5.31004e-19)
(0.258249 1.58505 0)
(0.278333 0.759436 -3.1593e-19)
(0.176763 1.67238 -1.04682e-18)
(0.225581 1.22162 1.04908e-18)
(0.901917 0.0061607 0)
(0.967326 0.0112283 0)
(0.974511 0.010839 0)
(0.923253 0.00631482 0)
(-0.0103302 0.747405 0)
(-0.0124437 0.745614 0)
(0.00817591 0.426813 0)
(0.0785745 0.0642135 5.86468e-19)
(0.0747234 0.0374486 -6.88633e-19)
(0.038424 0.0397618 0)
(1.10225 0.0872382 2.70495e-20)
(1.08423 0.0400679 0)
(1.01534 0.0404855 0)
(0.908754 -0.0049735 0)
(0.440577 0.103459 0)
(0.500042 0.0872224 -2.46862e-18)
(0.410681 0.0163816 9.23549e-19)
(0.00851853 2.98065 7.02376e-19)
(-0.0327211 2.86504 4.65946e-20)
(0.00358573 3.05026 -1.77376e-20)
(0.0202658 3.04333 6.31217e-19)
(-0.0150122 2.9966 2.94422e-20)
(-0.0129357 2.9495 -1.18495e-22)
(-0.0172455 3.0119 -5.45582e-19)
(0.0148857 3.0237 3.94852e-19)
(0.00739806 3.03682 -6.24784e-19)
(0.934259 -0.00114558 0)
(0.939647 -0.00314705 0)
(0.846261 -0.00945629 0)
(0.956374 0.0121203 0)
(0.942367 0.0135711 0)
(0.881336 0.00557802 0)
(0.916256 0.0175366 0)
(0.925389 0.0154705 0)
(0.83724 0.00260732 0)
(0.713914 1.39861 3.69635e-20)
(0.74726 1.50715 0)
(0.17941 0.311478 7.06644e-20)
(0.230136 0.668766 5.67879e-19)
(0.261891 0.717944 -3.3187e-19)
(0.261308 0.51569 6.60847e-19)
(0.347387 0.81336 1.59757e-18)
(0.14142 0.23112 3.7693e-19)
(0.249052 0.14262 7.28596e-19)
(0.210499 0.133062 1.88667e-19)
(0.2143 0.0786494 3.57283e-19)
(1.18573 0.467318 6.76554e-20)
(1.20025 0.258838 6.25763e-20)
(0.0104076 2.23415 2.5138e-19)
(0.040312 1.94898 0)
(0.971925 0.0296807 0)
(0.944135 0.0140875 0)
(0.870207 -0.0177168 0)
(0.0112157 3.07413 0)
(0.0195386 2.94404 1.15199e-18)
(0.0164001 2.95624 0)
(0.00646488 2.85065 -1.14266e-18)
(0.00636311 3.09088 2.7918e-19)
(0.00722872 3.08278 0)
(0.77993 1.80813 -1.5718e-19)
(1.23831 2.48255 3.97975e-19)
(0.761889 1.94732 -1.22076e-18)
(0.0194449 2.97977 -6.04013e-19)
(0.0349486 2.99824 0)
(-0.0346504 2.8758 0)
(-0.00395017 2.22432 -1.31969e-20)
(-0.00322427 2.2453 2.0183e-20)
(0.00175152 1.98862 -7.28652e-21)
(0.278307 1.39482 1.02502e-18)
(0.240275 0.555471 -7.02729e-19)
(0.0636856 1.99699 7.60371e-19)
(0.134945 1.88328 -9.08301e-19)
(0.180012 1.51266 9.53345e-20)
(0.00229282 3.11834 -1.73706e-18)
(0.0165241 3.1179 1.86182e-18)
(-0.00924532 2.98097 7.72716e-19)
(-0.00359046 2.97723 -7.28869e-19)
(-0.0210649 2.88104 -7.86991e-19)
(0.0085544 3.09941 -2.07374e-18)
(0.00210278 3.10654 2.02377e-18)
(0.283508 0.695927 0)
(0.249297 0.684237 -1.18341e-18)
(0.0957296 0.224456 5.25352e-19)
(0.35859 0.940946 1.11575e-18)
(0.196469 0.277521 -1.72036e-18)
(1.19034 0.176474 6.22877e-20)
(1.20054 0.313844 0)
(1.17873 0.123745 -5.10714e-21)
(0.00168336 2.25311 -1.4259e-21)
(0.00510107 2.24429 0)
(0.0247157 1.98499 0)
(0.339778 1.30389 -3.67883e-19)
(0.375435 1.15273 -8.00835e-19)
(0.211233 0.380093 1.42865e-18)
(1.00588 -0.0108221 0)
(1.00767 -0.00762998 5.07518e-19)
(-0.0313528 1.33434 0)
(-0.0440345 1.33572 0)
(1.00221 0.00351728 1.81304e-21)
(1.00367 0.00947443 1.03634e-18)
(-0.0198272 2.5298 1.18809e-20)
(-0.0248146 2.57244 0)
(0.0337583 3.1762 3.96775e-19)
(0.388133 3.48055 0)
(1.17932 0.668582 -5.56427e-20)
(1.01282 0.0131499 -2.12978e-21)
(1.02137 -0.0102611 0)
(1.0017 0.000137074 8.08269e-23)
(0.112952 1.37268 0)
(0.143188 2.56444 0)
(0.0357424 1.31528 0)
(0.000594109 2.61626 2.47703e-20)
(-0.0207565 2.57366 -1.08751e-21)
(0.999598 0.0311334 2.51878e-21)
(1.06335 0.0049457 0)
(1.09802 0.0256003 0)
(-0.0322302 1.74495 0)
(-0.0189717 2.57425 0)
(-0.00751288 1.32409 0)
(0.311714 1.4856 -1.6786e-19)
(1.01131 -0.00960646 0)
(1.0094 -0.0149138 0)
(1.00237 0.000762839 6.48643e-19)
(1.00547 -0.00479306 -7.6234e-19)
(1.00118 -0.000963943 0)
(-0.0197119 1.47503 0)
(-0.00824617 1.38833 0)
(-0.0116002 1.43291 0)
(-0.0120174 1.31063 0)
(-0.0258485 1.29787 0)
(-0.0155552 1.28278 0)
(1.03511 -0.00599917 0)
(1.01973 0.0160669 -9.31632e-22)
(0.82528 1.27814 2.62865e-19)
(1.00223 0.000329421 -6.46057e-19)
(1.00406 0.0052671 7.56478e-19)
(1.00118 0.00208009 0)
(1.01269 0.0103978 6.43125e-19)
(1.00797 0.00832131 -7.79255e-19)
(1.00855 0.0146816 0)
(-0.0242153 2.60147 0)
(-0.0264612 2.58038 -2.24723e-20)
(-0.0236212 2.59479 1.59305e-20)
(1.23996 0.270336 5.78981e-19)
(1.16402 0.087957 0)
(0.039025 3.07826 -8.91846e-19)
(0.0650291 2.85708 -6.48299e-20)
(0.13704 3.19172 1.36326e-18)
(0.132481 3.21912 -1.89747e-19)
(0.131835 3.22908 0)
(0.0194534 3.13711 2.29938e-19)
(0.0736491 3.15993 8.79349e-19)
(0.0667234 3.18462 -4.33565e-19)
(0.0215921 3.13019 0)
(0.54995 0.2813 0)
(0.484229 0.300148 0)
(1.15185 0.705012 1.24812e-19)
(1.14466 0.826642 -1.06537e-19)
(1.2072 0.591475 0)
(1.2343 0.524867 0)
(1.01599 0.0134057 -1.1987e-18)
(1.01493 0.0142741 1.50497e-18)
(1.02543 -0.00978148 0)
(1.02349 -0.0118303 0)
(1.00642 0.0026667 0)
(1.01042 0.00377368 0)
(1.00458 0.00187977 0)
(1.00977 0.00627683 0)
(1.0078 0.00597213 0)
(1.00451 0.00473918 0)
(0.10159 1.37128 0)
(0.0985989 1.33301 0)
(0.13206 1.4078 0)
(0.150183 1.41215 0)
(0.145292 2.58963 0)
(0.184744 2.66035 -4.21953e-19)
(0.101636 2.64454 0)
(0.0853634 2.64762 1.97019e-19)
(0.039198 2.67078 -1.45046e-19)
(0.022659 1.33244 0)
(0.033122 1.24833 0)
(0.0250366 1.34259 0)
(0.0466875 1.2696 0)
(0.00481885 1.98115 7.12911e-21)
(-0.0196755 2.60138 -2.47093e-20)
(-0.00738 2.65755 8.39518e-21)
(-0.0173369 2.6774 0)
(-0.0228083 2.60707 7.80784e-21)
(-0.0228939 2.60209 2.09562e-20)
(0.0135278 1.97913 -1.76976e-21)
(-0.00716322 2.38769 3.31484e-20)
(-0.0125037 2.41091 -9.52149e-21)
(1.01191 0.0399973 1.21331e-18)
(1.00537 0.0211997 -1.51054e-18)
(1.0041 0.0472159 -1.23616e-18)
(0.978735 0.0379593 1.55566e-18)
(1.06454 0.00873833 0)
(1.04963 -0.00810645 0)
(1.09514 0.0356326 0)
(1.07474 0.0133175 0)
(1.07254 0.00109014 0)
(1.14107 0.08477 0)
(1.11264 0.0454708 0)
(1.11687 0.0331261 0)
(-0.0270142 2.42428 1.76545e-21)
(-0.016952 2.01372 0)
(-0.019103 2.21269 0)
(-0.0208378 2.59486 -1.40432e-20)
(-0.0178319 2.60512 3.10515e-22)
(0.000773221 1.58778 -4.34051e-20)
(-0.010401 1.51525 4.42546e-20)
(-0.0193297 1.40414 0)
(-0.0232137 1.41117 0)
(-0.030702 1.40548 0)
(-0.00370889 1.32571 0)
(0.0133006 1.24322 0)
(0.388054 1.50308 2.73096e-19)
(0.431447 1.50363 1.45135e-19)
(0.59686 2.4402 -2.40627e-19)
(0.397152 2.53777 7.07419e-19)
(0.348461 2.0471 7.20353e-20)
(1.0211 -0.00808525 0)
(1.01552 -0.00972841 0)
(1.01493 -0.0154959 0)
(1.00741 -0.00104444 0)
(1.00493 -0.000898777 0)
(1.00779 -0.0046673 0)
(1.00928 -0.00357745 0)
(1.01424 -0.0043372 0)
(1.02044 0.0166321 1.1745e-18)
(1.01751 0.0157591 -1.5043e-18)
(1.02077 0.0189378 -1.18414e-18)
(1.01811 0.0174792 1.48383e-18)
(0.788517 1.32842 0)
(0.723615 1.37983 2.4792e-19)
(0.901692 1.22861 9.99989e-20)
(0.947479 1.17441 -1.33086e-19)
(1.15207 2.59415 2.85594e-19)
(0.763782 0.12372 6.01354e-19)
(1.16464 0.110915 0)
(1.21445 0.196927 -4.6614e-19)
(1.20205 0.157066 -1.98834e-20)
(1.00577 0.159202 0)
(0.125357 2.9592 5.19313e-19)
(0.101247 2.86468 -1.12958e-18)
(0.00660552 2.37821 7.51844e-19)
(0.109542 -0.183687 -3.03861e-19)
(0.333105 3.41111 -2.18472e-19)
(0.188947 3.30691 0)
(0.233052 3.34638 2.84531e-19)
(0.235989 3.03083 -1.74458e-18)
(0.32881 3.18819 0)
(0.00540177 3.12117 4.49669e-20)
(0.0152923 3.1298 -5.3139e-19)
(0.0136092 3.12589 7.82086e-19)
(0.0341223 3.14004 0)
(0.0326583 3.14998 0)
(1.20621 2.59102 0)
(0.550841 0.796222 -5.2651e-19)
(1.07115 0.999296 -1.16792e-20)
(1.00696 1.08335 0)
(0.860704 0.977944 -1.0893e-19)
(1.09832 0.900156 2.78472e-20)
(0.269657 0.303772 -8.07371e-19)
(0.637512 0.326446 -1.5844e-20)
(0.520537 0.219917 4.05645e-19)
(0.504753 0.337108 2.88977e-20)
(0.387596 0.262694 -1.15714e-18)
(0.589569 0.326695 0)
(0.707765 0.433603 6.6082e-19)
(0.7047 0.43384 0)
(0.547302 0.342017 0)
(0.454421 0.238176 0)
(0.833568 0.632129 4.05888e-19)
(1.24142 0.292834 -4.86823e-19)
(1.24221 0.432746 0)
(1.25023 0.372745 0)
(0.669745 0.195212 6.22206e-19)
(0.87774 0.563266 -3.70177e-19)
(0.777458 0.541616 6.61139e-19)
(0.963517 0.453353 -7.32384e-19)
(1.01918 0.0150615 8.06817e-19)
(1.0175 0.0144084 -8.10533e-19)
(1.01579 0.0154169 0)
(1.03658 -0.00553858 0)
(1.02998 -0.00832782 -7.59208e-19)
(1.02803 -0.0119264 7.51664e-19)
(1.02491 0.0107251 0)
(1.02338 0.0145157 0)
(1.01142 0.00420404 0)
(1.01417 0.00922122 0)
(1.01518 0.00423746 0)
(1.01429 0.00294419 0)
(0.0725403 1.35466 0)
(0.080033 1.29936 0)
(0.148892 1.38935 7.35586e-21)
(0.282404 1.48398 8.92866e-20)
(0.177413 1.45468 1.87758e-19)
(0.209855 1.45989 -3.06146e-19)
(0.177819 1.41504 0)
(0.1363 1.59978 -7.12842e-20)
(0.120354 1.57958 0)
(0.344222 1.99572 -1.04752e-19)
(0.340785 2.33329 6.13363e-19)
(0.19667 1.46689 6.21397e-20)
(0.26982 1.40109 2.30536e-20)
(0.203085 1.39403 -1.86142e-20)
(0.279852 1.34389 -1.05379e-19)
(0.243059 1.57826 0)
(0.269834 1.61474 1.1393e-19)
(0.0312533 2.25401 -2.85954e-20)
(0.0441633 2.65977 0)
(0.0668431 2.39029 1.35624e-19)
(0.0635868 2.41088 0)
(0.0699088 2.6612 -2.18344e-19)
(0.0496151 2.69009 0)
(0.0306287 1.45124 3.80858e-20)
(0.0369856 1.49781 0)
(0.0349843 1.41569 0)
(0.0307108 1.42232 -4.29797e-20)
(0.00140121 2.64369 -1.65379e-20)
(0.0302775 2.68913 1.62474e-19)
(0.01107 2.71451 1.13718e-21)
(0.00665219 1.84049 -1.02632e-20)
(-0.000308434 1.69461 -5.52681e-21)
(0.0193243 1.3092 0)
(0.0299913 1.22406 0)
(0.0462391 1.59693 -3.00534e-20)
(0.0359096 1.47739 -3.61534e-20)
(0.0396644 1.54019 4.51862e-20)
(0.0412697 1.62024 0)
(-0.0305616 2.26623 1.09324e-19)
(-0.0315834 2.54184 -4.55644e-20)
(-0.0172721 2.4404 5.57376e-21)
(-0.00121228 1.85591 1.24367e-20)
(-0.02589 2.49274 5.17051e-21)
(-0.0200576 2.43724 -9.67473e-21)
(1.01896 0.0223225 -8.04999e-19)
(1.01557 0.0286971 8.08102e-19)
(1.01276 0.0183875 0)
(1.00904 0.0714747 1.13274e-18)
(0.991661 0.0619552 -1.2644e-18)
(0.950968 0.0562682 1.41377e-18)
(1.01277 0.112043 -1.50736e-19)
(1.04304 -0.00550456 0)
(1.0515 -0.00105865 7.23879e-19)
(1.03935 -0.00966823 -7.25362e-19)
(1.07235 0.0433523 -4.30536e-20)
(1.06523 0.0244687 3.71294e-19)
(1.06307 0.057677 0)
(1.05417 0.05111 -1.33585e-19)
(1.03214 0.0423973 0)
(1.02667 0.0385835 0)
(1.02794 0.0139094 0)
(1.02395 0.0166711 0)
(1.0402 0.033311 2.75109e-19)
(1.03888 0.0271441 -6.08222e-19)
(1.05148 0.0349785 -2.91533e-19)
(1.04834 0.0350804 -3.21115e-19)
(1.07179 0.066073 6.26665e-19)
(1.09739 0.0538627 0)
(1.10696 0.0983287 0)
(-0.0264385 2.2708 6.05166e-20)
(-0.0265774 2.01969 1.63846e-21)
(-0.0226136 2.02715 0)
(-0.0276021 2.43875 -6.02312e-20)
(-0.0231992 2.39509 -3.32665e-21)
(-0.0339187 2.46517 6.51387e-21)
(-0.0205323 2.61453 -1.84167e-20)
(-0.0235984 2.55605 5.73885e-22)
(-0.022148 2.50821 -5.4751e-21)
(-0.0159082 2.60819 1.39764e-20)
(-0.0207952 2.61032 -1.54722e-20)
(-0.00779054 1.51577 -1.03432e-21)
(0.00131729 1.63463 -4.29481e-20)
(0.373194 1.45198 -1.15043e-19)
(0.373256 1.38465 3.94859e-20)
(0.664333 1.42955 -2.39797e-19)
(0.530445 1.49639 -1.42466e-19)
(0.58843 1.46249 0)
(0.592564 2.41736 2.07117e-19)
(0.661187 2.41349 3.37764e-19)
(0.410638 2.50661 8.82317e-20)
(0.401902 2.53047 -6.07985e-19)
(0.509506 2.47086 6.14603e-19)
(0.552676 2.45401 0)
(0.487082 2.5121 -5.59005e-19)
(0.24793 2.58406 1.14031e-18)
(0.354263 2.55602 -7.68761e-20)
(0.283385 2.6458 -1.58341e-18)
(0.947954 2.36989 7.3082e-19)
(0.837728 2.37575 0)
(1.01109 0.000559321 2.63142e-20)
(1.01538 -0.00533535 -2.13435e-20)
(1.0177 -0.00343264 -3.89819e-19)
(1.01507 -0.000794056 3.91947e-19)
(1.01248 0.00130932 0)
(0.651788 1.29337 0)
(0.676086 1.1871 0)
(0.790542 1.10678 0)
(0.669241 1.15048 0)
(1.18233 2.60756 6.02589e-20)
(1.07016 2.35485 0)
(0.831703 2.15603 3.91107e-21)
(0.822413 2.42325 0)
(0.920724 2.51766 -4.25854e-19)
(0.955841 2.47384 2.83236e-19)
(0.795604 0.184172 0)
(0.736023 0.157067 1.63121e-19)
(0.905358 0.153305 9.50527e-19)
(0.821371 0.156148 -3.55444e-19)
(0.774694 0.0904133 -1.09928e-18)
(1.08314 0.244195 -8.93173e-19)
(0.999687 0.308659 -1.80807e-20)
(0.926613 0.312798 8.60174e-19)
(1.00655 0.23785 7.23068e-19)
(0.947226 0.20176 -1.25723e-18)
(0.908292 0.206222 1.57285e-19)
(0.946475 0.273827 -3.33565e-19)
(0.92444 0.232604 0)
(0.995729 0.19843 6.1991e-19)
(1.04711 0.196897 0)
(1.04501 0.225587 0)
(1.10819 0.122886 2.90382e-19)
(1.07215 0.183172 -1.52157e-20)
(1.07651 0.244141 -1.58001e-19)
(1.10196 0.209778 0)
(1.02097 0.0468479 6.20555e-19)
(1.04013 0.0600493 7.7433e-19)
(1.03369 0.0453262 -6.16691e-19)
(1.04242 0.0680641 -5.19552e-19)
(1.01718 0.0763493 -7.98113e-19)
(0.983812 0.161534 0)
(0.98887 0.106656 0)
(0.965979 0.0771698 -5.02989e-19)
(0.903887 0.0982364 2.00245e-19)
(1.04034 0.109027 7.17693e-19)
(1.0695 0.126249 -8.37639e-19)
(1.07676 0.158895 7.48015e-19)
(1.03196 0.153673 0)
(1.07504 0.113512 0)
(1.05398 0.0942171 -3.43347e-19)
(1.04444 0.0999493 -5.85545e-19)
(0.578402 1.04879 1.42879e-19)
(0.601107 1.37062 -4.47597e-20)
(1.15233 2.72355 -2.32409e-19)
(1.21751 3.06617 3.29742e-21)
(1.24366 2.70626 -1.29792e-19)
(1.27142 2.68913 -2.80819e-20)
(1.19815 2.32889 -1.13839e-20)
(1.20533 2.96985 -9.83046e-20)
(1.22586 2.93545 2.41756e-19)
(1.2073 3.21848 -1.40331e-19)
(1.36626 2.94858 1.93833e-19)
(1.35406 2.86637 0)
(0.572654 0.806309 -5.0816e-20)
(0.0966066 1.2126 5.64471e-19)
(0.567162 0.316565 5.31767e-19)
(0.402255 0.0607179 5.69853e-19)
(0.443201 0.30867 6.56683e-19)
(0.543475 0.425761 -1.0698e-18)
(0.547492 0.419508 8.75784e-19)
(0.445006 0.281993 -3.30906e-19)
(0.290915 0.209369 7.41494e-19)
(0.699424 0.271822 -3.59829e-19)
(0.653821 0.294046 0)
(0.582751 0.208462 6.17001e-21)
(0.743968 0.516378 3.57908e-19)
(0.727449 0.488197 -1.3009e-18)
(0.623347 0.449869 8.87897e-21)
(0.613282 0.439624 0)
(0.699655 0.719553 3.95474e-19)
(0.861966 0.784119 3.91364e-19)
(0.786618 0.867193 -4.58094e-19)
(0.907587 0.821516 -1.52555e-19)
(0.938751 0.866727 -3.66453e-20)
(0.945744 0.866436 3.75271e-20)
(0.872777 0.66694 -6.72572e-19)
(0.952554 0.719161 1.41639e-19)
(1.0129 0.733823 0)
(1.00351 0.710051 -1.91263e-19)
(1.02974 0.349551 2.11416e-19)
(1.15141 0.309666 2.86896e-19)
(1.07124 0.281965 3.65017e-19)
(1.02056 0.382571 -4.30202e-19)
(1.06977 0.444837 0)
(1.12634 0.424692 0)
(0.920762 0.386257 1.27835e-21)
(0.835363 0.320427 0)
(0.886003 0.319637 4.0642e-19)
(0.909806 0.32103 -8.4341e-21)
(0.958745 0.457165 2.03971e-18)
(0.920662 0.513025 5.23287e-19)
(0.924484 0.479657 -5.58904e-19)
(0.837768 0.46814 6.00484e-19)
(0.821925 0.463535 3.60212e-19)
(0.790802 0.44683 -3.53551e-19)
(1.02744 -0.000134928 6.49421e-19)
(1.02006 0.000155209 0)
(1.01857 0.0010801 4.23467e-19)
(1.0218 -0.00144465 -9.5928e-19)
(1.0224 0.0046279 4.66015e-19)
(1.02032 0.0116865 -9.75883e-19)
(1.02122 0.0110804 0)
(1.02042 0.0113298 -2.03404e-19)
(1.01594 0.00794014 5.10275e-19)
(1.01657 0.0107535 -2.54674e-19)
(1.01729 0.0101105 1.87484e-19)
(0.0362722 1.33099 0)
(0.0433485 1.38709 0)
(0.0528289 1.33113 0)
(0.0604228 1.27674 0)
(0.0759143 1.40429 -4.83516e-20)
(0.08637 1.36988 2.1605e-20)
(0.114131 1.54931 -1.49171e-20)
(0.108114 1.3926 -4.35862e-21)
(0.0412635 1.4825 2.11098e-20)
(0.0449276 1.47618 -1.62494e-20)
(0.068889 1.39174 -1.10424e-20)
(0.0615098 1.39246 4.63128e-20)
(0.0560054 1.36953 6.92215e-21)
(0.0465225 1.39354 4.05447e-21)
(0.107526 2.3576 -1.49838e-19)
(0.0962346 2.40664 0)
(0.169248 2.0316 1.08962e-19)
(0.114738 1.70236 4.01479e-20)
(0.234859 2.02962 -9.00498e-20)
(0.198843 2.41968 0)
(0.261668 2.36954 -6.07461e-19)
(0.301896 2.36723 4.28988e-19)
(0.228492 1.98914 -2.51025e-19)
(0.154897 2.1476 1.70114e-19)
(0.141318 2.25367 0)
(0.0192372 1.87672 9.15163e-21)
(0.00153961 2.38225 -2.77804e-20)
(0.00687226 2.14024 0)
(0.0120711 2.44654 -1.36867e-20)
(0.0297663 2.28907 7.22798e-21)
(0.0192868 1.43069 -8.35704e-21)
(0.0168524 1.41247 1.40877e-19)
(0.0152719 1.4211 -4.64533e-20)
(0.0242544 1.42698 -3.92873e-20)
(0.0285973 1.45518 0)
(0.0106173 1.40504 0)
(0.00417678 1.30968 -6.38468e-20)
(0.005701 1.39957 1.85362e-20)
(0.0123432 1.39679 0)
(0.0130915 1.2999 -4.74505e-20)
(0.0251326 1.21467 9.65704e-20)
(1.04085 0.0121459 0)
(1.04711 0.00843209 -6.79377e-20)
(1.03894 0.0227462 -4.90018e-19)
(1.04861 0.0214058 0)
(1.05244 0.0211812 0)
(1.03656 0.0124248 -6.80636e-21)
(1.03124 0.012279 7.87639e-19)
(1.03178 0.0173199 9.55153e-19)
(1.02562 0.021278 0)
(1.02258 0.021861 0)
(1.0354 0.0263298 4.88893e-19)
(1.02592 0.0280971 0)
(1.02409 0.0276923 0)
(-0.018021 2.02356 0)
(-0.00148303 1.66395 -4.30214e-21)
(-0.00552063 1.76746 -3.26681e-20)
(-0.00299659 1.40621 0)
(-0.00627918 1.56963 -2.47893e-20)
(-0.0116987 1.48256 1.51225e-20)
(-0.0101303 1.42272 0)
(0.387785 1.63412 0)
(0.376174 1.31036 -7.75763e-20)
(0.300269 1.33951 0)
(0.427444 1.30901 1.35087e-20)
(0.47899 1.47406 0)
(0.459097 1.41816 2.24615e-20)
(1.03587 2.6697 -1.54486e-20)
(0.968147 2.39818 -9.18364e-19)
(0.921496 2.18749 1.02784e-18)
(0.851845 2.36751 2.42861e-19)
(0.847143 2.47863 0)
(0.916801 2.47471 0)
(0.931312 2.36338 0)
(0.910258 2.35323 -9.48569e-19)
(0.685593 2.44164 -3.97079e-19)
(0.799004 2.43101 -9.83573e-20)
(0.809203 2.40512 7.46861e-20)
(0.694942 2.38632 0)
(0.800271 2.38154 0)
(0.758262 2.39527 -3.69494e-19)
(0.766536 2.46843 0)
(0.637663 1.09474 0)
(0.479443 0.892139 -5.23682e-19)
(0.574487 0.941384 -3.30708e-20)
(0.51827 1.02712 0)
(0.518714 0.967479 7.83077e-19)
(0.806898 0.889196 -1.29444e-19)
(0.81468 1.02432 0)
(0.790307 0.991383 1.84438e-19)
(0.675066 1.03525 0)
(0.675801 0.93759 0)
(1.16188 2.74678 -2.32569e-19)
(1.13925 2.81028 -1.00282e-19)
(0.926855 2.32268 1.06091e-19)
(0.894912 2.30257 -8.47318e-20)
(1.12771 2.7197 0)
(1.0818 2.689 1.0192e-19)
(1.08703 2.4727 -3.14797e-19)
(0.981614 2.22646 -3.00689e-20)
(0.490183 1.32268 0)
(0.506738 1.05585 -1.25904e-19)
(0.580213 1.16832 0)
(0.848873 0.251549 0)
(0.755727 0.200754 0)
(0.662231 0.154403 0)
(0.839669 0.252624 -6.3254e-19)
(0.725416 0.245713 3.74695e-19)
(0.922096 0.0914653 -4.1264e-19)
(0.924415 0.133507 0)
(0.912623 0.142322 1.78321e-19)
(0.848683 0.118338 7.1295e-19)
(0.812603 0.079192 -4.46735e-19)
(1.1519 3.34303 -7.11937e-19)
(1.20142 3.26278 0)
(1.1494 3.37239 -1.48245e-18)
(0.638125 3.53448 1.2563e-18)
(0.858015 3.1044 6.75562e-20)
(0.52513 0.782609 6.09272e-19)
(0.420957 0.780211 0)
(0.295502 0.339564 -1.47425e-19)
(0.484579 0.648918 8.5428e-19)
(0.576434 0.326707 -1.89247e-19)
(0.518547 0.461546 2.27113e-19)
(0.675717 0.51772 4.8215e-19)
(0.722768 0.559705 0)
(0.672374 0.570552 0)
(0.640441 0.527584 0)
(1.01288 0.620537 8.69308e-20)
(0.926303 0.562302 -5.09666e-19)
(0.952273 0.593394 3.83326e-19)
(0.980998 0.533434 -3.95342e-19)
(1.09017 0.499836 0)
(1.09895 0.591511 -9.57982e-20)
(0.856476 0.419346 -8.29896e-19)
(0.854182 0.406989 -1.02902e-18)
(0.784496 0.401845 6.30099e-19)
(0.793693 0.39003 -6.40943e-19)
(0.842061 0.345435 -5.20137e-19)
(0.787583 0.341533 6.35745e-19)
(1.02678 0.00620454 -4.96225e-19)
(1.02648 0.00643769 1.01017e-18)
(1.02957 0.00033419 6.29324e-19)
(1.03376 0.00123373 -7.58002e-19)
(1.03396 0.00937463 0)
(1.03023 0.0100584 -1.23316e-18)
(0.0641934 1.63836 1.8704e-20)
(0.0527952 1.59097 0)
(0.0913123 1.68748 1.26137e-19)
(0.0986093 1.6686 -1.11738e-19)
(0.0926494 1.55025 2.66726e-20)
(0.0919305 1.55192 0)
(0.0137358 1.69652 0)
(-0.00230134 1.51347 1.12422e-20)
(-0.00062918 1.46006 -1.01073e-20)
(-0.00789835 1.56638 5.39378e-21)
(0.00263412 1.88768 1.65668e-20)
(-0.00937151 1.94095 -4.18278e-21)
(0.496588 1.35208 -2.82681e-19)
(0.490369 1.35121 3.10759e-19)
(0.4553 1.30455 -3.50087e-20)
(0.436933 1.28058 8.00206e-21)
(0.643911 1.31183 0)
(0.558103 1.40256 1.03264e-19)
(0.574612 1.40943 -1.00534e-19)
(0.469669 1.29762 3.41925e-20)
(0.525315 1.24377 0)
(0.576607 1.20582 0)
(0.652648 2.40147 5.83291e-19)
(0.668378 2.44367 1.26093e-18)
(0.712708 2.45449 -8.6893e-19)
(0.608698 2.42843 -2.01969e-19)
(0.559339 2.51786 2.84462e-19)
(0.50869 2.4931 -7.58216e-19)
(0.977491 2.36991 -5.75383e-19)
(1.01089 2.38181 0)
(0.924939 2.16552 -6.59101e-19)
(1.05306 2.66798 0)
(1.05542 2.65455 0)
(0.592051 2.24979 -1.38308e-19)
(1.03327 3.14944 1.192e-19)
(0.904615 3.02023 -2.09407e-20)
(0.255726 0.820451 0)
(0.278294 0.658916 -3.18477e-19)
(0.452594 0.621107 -3.21934e-19)
(0.372312 1.99314 0)
(0.458496 2.77616 -4.70301e-20)
(0.410736 2.53853 0)
(0.726082 0.670066 -8.34503e-19)
(0.809361 0.692595 1.11145e-18)
(0.828973 0.63315 -1.09778e-18)
(0.70242 0.63545 -1.0646e-19)
(0.756315 0.595602 -4.35252e-19)
(0.997927 2.74688 -9.06647e-20)
(1.04042 2.81057 -1.72284e-19)
(0.626921 2.10868 7.22246e-19)
(0.578474 1.67835 -5.13814e-19)
(0.690709 1.8815 -4.15542e-19)
(0.984627 2.43137 -1.13249e-19)
(0.992336 2.42455 3.02854e-19)
(0.643498 1.81252 2.88658e-20)
(0.436477 1.30078 1.47099e-19)
)
;

boundaryField
{
    wall-4
    {
        type            noSlip;
    }
    velocity-inlet-5
    {
        type            fixedValue;
        value           uniform (1 0 0);
    }
    velocity-inlet-6
    {
        type            fixedValue;
        value           uniform (0 3 0);
    }
    pressure-outlet-7
    {
        type            zeroGradient;
    }
    wall-8
    {
        type            noSlip;
    }
    frontAndBackPlanes
    {
        type            empty;
    }
}


// ************************************************************************* //
