/*--------------------------------*- C++ -*----------------------------------*\
| =========                 |                                                 |
| \\      /  F ield         | OpenFOAM: The Open Source CFD Toolbox           |
|  \\    /   O peration     | Version:  2206                                  |
|   \\  /    A nd           | Website:  www.openfoam.com                      |
|    \\/     M anipulation  |                                                 |
\*---------------------------------------------------------------------------*/
FoamFile
{
    version     2.0;
    format      ascii;
    arch        "LSB;label=32;scalar=64";
    class       volScalarField;
    location    "77";
    object      p;
}
// * * * * * * * * * * * * * * * * * * * * * * * * * * * * * * * * * * * * * //

dimensions      [0 2 -2 0 0 0 0];

internalField   nonuniform List<scalar> 
918
(
0.557112
1.17548
0.00127742
0.556574
-0.0125796
1.14247
-0.513044
0.651794
0.537319
-0.107203
-0.057265
0.539572
1.00318
0.770254
-1.12428
-0.0121901
0.651534
-0.38254
0.536445
-0.0648089
0.679325
0.543852
0.546876
0.537453
0.596815
0.742572
0.884496
0.0274842
0.0110444
0.00642272
-0.0120601
-0.0388047
-0.0330379
1.02612
1.07721
1.09991
0.505035
0.333753
-0.378756
-0.452358
-0.438435
-0.541466
0.653116
0.654262
-0.216714
0.653368
0.652625
0.524325
0.536689
0.537602
0.538613
0.537603
0.53898
0.402434
-0.108219
-0.139642
-0.0880493
-0.08109
0.0498484
-0.0570303
-0.0584587
-0.0562452
-0.0562645
0.454102
0.534015
0.530521
0.543832
0.553058
1.11503
1.08695
1.11309
1.02677
1.04326
0.981147
0.953831
0.789962
0.811821
0.756746
0.74286
-1.55423
-2.50208
-0.536225
-0.286406
-0.0106052
-0.0103891
-0.00502135
0.64886
0.649965
0.651267
0.653083
1.0785
-0.379813
-0.481298
0.536588
0.535399
0.543709
0.544411
0.540432
0.539522
-0.0562425
-0.0536537
-0.0541282
-0.0599799
-0.0578537
0.658231
0.662131
0.537979
0.53498
0.560588
0.581153
0.571055
0.276826
0.607853
0.623926
0.57743
0.737047
0.730023
0.739115
0.858057
0.822482
0.921416
0.944467
0.0181262
-0.000176346
-0.0165447
-0.0200852
-0.0190849
0.500861
0.493395
0.521187
0.508476
0.510987
0.250806
0.117882
0.418505
0.443216
-0.298466
-0.366287
-0.43078
-0.46119
-0.568615
0.613433
0.654471
0.652248
-0.225966
-0.154302
-0.288498
-0.0811359
-0.144388
0.514572
0.521599
0.51659
0.532163
0.526625
0.52859
0.540965
0.538033
0.539594
0.464538
0.588025
0.328691
0.293093
-0.243625
-0.155037
-0.242908
-0.071071
-0.0684254
0.0639829
0.0897105
0.0365655
0.0247349
-0.0643722
-0.0596035
-0.0619459
-0.0554567
-0.0551885
0.446815
0.43554
0.466817
0.474393
0.520449
0.521921
0.526431
0.524458
0.904558
0.926902
0.934549
0.908292
-3.48796
-6.26319
0.036894
0.172543
-0.00662783
-0.00938691
0.00204642
-0.00608627
-2.01684e-05
-0.00211133
-0.0104116
-0.0116651
-0.00635183
-0.00516186
0.643494
0.644372
1.00108
1.00862
0.976221
0.929221
0.524845
0.526896
0.532377
0.528266
-0.0542758
-0.0533087
-0.0531807
0.654227
0.656845
0.655791
0.238117
0.14792
0.328133
0.357444
0.637029
0.626041
0.635298
0.637517
0.674918
0.951844
0.9701
0.96829
0.976693
1.0207
1.03709
1.00251
0.480249
0.490262
0.485192
0.524049
0.52194
0.522784
0.519268
0.520239
0.518461
-0.0321759
-0.411119
0.490497
0.506881
0.492847
0.494723
0.693571
0.772198
0.652454
0.653305
0.653265
-0.0113436
-0.0698795
0.248144
0.213841
0.386086
0.422666
0.401536
0.875851
0.836094
0.886309
0.859455
0.820689
0.846515
-0.362726
-1.85842
-0.979687
0.520562
0.335735
0.422663
0.00651003
-0.0100948
-0.0055835
1.00138
1.07315
0.643835
0.819066
0.821373
0.708507
0.737758
0.796736
0.725237
0.758277
0.78994
0.768036
0.56921
0.503686
0.52017
0.841089
0.896617
0.117302
0.0549085
0.0111788
0.108834
0.166435
0.140324
1.03299
0.950054
1.01996
0.534743
0.535468
-0.00577812
-0.0185806
0.539727
0.539785
-0.0131409
-0.00237931
0.405429
-0.831904
0.0951395
0.528332
0.518178
0.535337
-0.0931473
0.353847
-0.0580295
0.0453114
-0.0115699
0.529553
0.465265
0.424262
-0.000744677
-0.0214345
-0.0551864
-0.213647
0.532413
0.530717
0.534804
0.535741
0.536425
-0.019764
-0.0155515
-0.0106758
-0.0514294
-0.0431438
-0.0565478
0.499198
0.518551
-0.172
0.534953
0.53709
0.536907
0.530186
0.535808
0.534065
-0.011981
-0.01658
-0.0190317
0.217824
0.350975
0.643069
0.727767
0.616559
0.393086
0.159131
0.547279
0.609733
0.516504
0.668826
0.648932
0.649179
0.160598
0.00999661
0.169847
0.111743
0.526201
0.524948
0.516429
0.513383
0.530206
0.528322
0.532879
0.52991
0.53286
0.534237
-0.04993
-0.0759358
-0.0854369
-0.15208
0.308616
0.569625
0.25338
0.282647
0.1396
-0.0519266
-0.0534451
-0.0551851
-0.0612744
-0.00122445
-0.0274313
0.0399201
0.0400019
0.0117725
-0.014025
-0.0116619
-0.0228191
-0.0167564
0.522789
0.522907
0.527458
0.536109
0.474949
0.478733
0.443481
0.464305
0.449488
0.387955
0.423541
0.398639
-0.00665533
0.00148581
-0.0033883
-0.0196743
-0.0163915
-0.0354702
-0.0324857
-0.0283449
-0.02385
-0.0306696
-0.0494897
-0.0534045
-0.17161
-0.287558
0.98771
0.907618
0.138032
0.521553
0.528017
0.524774
0.529716
0.532844
0.533637
0.531339
0.527884
0.518817
0.52041
0.516974
0.517942
-0.102931
-0.245045
-0.0733344
-0.148758
0.145957
0.628116
0.362864
0.297766
0.293266
0.522957
0.913148
0.695093
0.660535
0.652491
-0.345209
0.042272
-0.282035
0.331754
0.160292
0.643311
0.690909
0.711831
0.660948
0.61474
-0.0991274
0.55575
-0.0769691
-0.0241342
0.178189
0.0525445
0.649939
0.637801
0.645413
0.642502
0.653296
0.640255
0.62109
0.622159
0.63955
0.646168
0.48029
0.248457
0.198774
0.160308
0.643211
0.513526
0.561999
0.488015
0.52153
0.524064
0.522723
0.504037
0.511636
0.50715
0.513704
0.517338
0.525927
0.526417
0.521654
0.523785
-0.0564118
-0.0620047
-0.026555
-0.135974
-0.128697
-0.190908
-0.0603513
0.0746289
0.0361483
0.236785
0.340008
0.0515956
-0.0574761
-0.0303594
0.0124752
0.179583
0.208312
0.0727542
0.159891
0.151901
0.132613
0.235667
0.238729
-0.032321
-0.0335355
-0.0384896
-0.0417212
0.0164074
0.0878202
0.0972672
-0.0108565
-0.0158417
-0.050474
-0.0524714
-0.0243579
-0.0292364
-0.0245588
0.00280963
-0.0538012
-0.0217965
-0.00809642
-0.00908233
-0.00857952
-0.0140481
0.517759
0.51948
0.519737
0.528443
0.540492
0.555278
0.521172
0.497203
0.487969
0.490977
0.463913
0.474193
0.470086
0.483644
0.504918
0.513393
0.511726
0.514522
0.496925
0.498648
0.485153
0.488819
0.463983
0.444513
0.432471
-0.043755
-0.00544967
-0.0136643
-0.0391362
-0.00958975
-0.0214649
-0.0136336
0.0059119
-0.0111329
-0.0119466
-0.0223197
-0.0287518
-0.0281178
-0.073475
0.0135673
-0.185768
-0.220666
-0.294383
0.89003
1.01427
0.808779
0.581532
0.602523
0.846032
0.930045
0.541646
0.734342
0.757356
0.588103
0.855236
0.526408
0.526
0.5236
0.523079
0.524301
-0.00719644
0.0997987
0.0964561
0.161014
0.277707
0.388999
0.321228
0.195711
0.325424
0.327785
0.620802
0.632852
0.58887
0.612823
0.613576
0.424667
0.500296
0.552029
0.513116
0.565788
0.587616
0.541044
0.574554
0.523362
0.478503
0.474609
0.424286
0.443853
0.419339
0.402485
0.516647
0.493411
0.504353
0.494556
0.516469
0.543301
0.540334
0.562632
0.577629
0.497585
0.452656
0.461964
0.492185
0.453772
0.469305
0.485078
0.23406
0.136524
0.219307
-0.0649607
0.00433372
-0.00761301
-0.0566067
-0.00453942
0.279424
-0.410538
-0.387587
-1.01355
0.505498
0.951673
0.576495
0.555192
0.654506
0.642906
0.649113
0.665758
0.660034
0.631827
0.640119
0.64497
0.590483
0.611343
0.628961
0.625022
0.523711
0.379305
0.379642
0.32638
0.196687
0.237018
0.432363
0.356764
0.282072
0.282148
0.455741
0.341911
0.412585
0.445054
0.376182
0.330902
0.534208
0.600624
0.593603
0.567412
0.476559
0.488272
0.513003
0.546441
0.569659
0.603377
0.513142
0.5191
0.520333
0.5178
0.51506
0.518166
0.518441
0.521049
0.521629
0.524667
0.523749
-0.0532234
-0.0398362
-0.0504484
-0.0617127
-0.0184915
-0.0213999
0.0219462
0.00943047
-0.0171166
-0.0128114
-0.0338058
-0.0378759
-0.0348158
-0.0274037
0.101997
0.114579
0.0991837
0.0592028
0.250372
0.379963
0.454399
0.329177
0.223719
0.247755
0.266274
-0.0144198
0.0109586
-0.00158956
0.0378963
0.0301534
-0.0419666
-0.0461568
-0.0424314
-0.0338162
-0.0256484
-0.0433755
-0.0495968
-0.0400597
-0.0449928
-0.0489749
-0.0533135
0.499479
0.492959
0.494561
0.488502
0.487215
0.501442
0.505753
0.507702
0.513162
0.515498
0.505543
0.510964
0.51494
-0.014585
-0.0376235
-0.0408368
-0.034004
-0.0347356
-0.0322045
-0.0339547
0.124005
0.0552188
0.0588399
0.0114555
-0.121587
-0.0633994
0.492809
0.491512
0.480296
0.721737
0.570922
0.491994
0.589166
0.694878
0.277051
0.47322
0.308745
0.88839
0.785459
0.931648
0.542347
0.246841
0.412571
0.453673
0.268058
0.34471
0.323439
0.212679
0.243249
0.282565
0.381044
0.266855
0.24401
0.000243752
0.191404
0.30266
0.284639
0.408547
0.468852
0.268399
0.187816
0.142752
0.605058
0.624646
0.638063
0.610087
0.632788
0.581473
0.573525
0.588904
0.596933
0.590762
-0.742045
-0.448183
-1.39567
-0.720068
-0.263531
0.53607
0.509895
0.769961
0.644028
0.673998
0.658317
0.61885
0.589459
0.615541
0.636422
0.337702
0.448316
0.423315
0.429656
0.332552
0.262345
0.561153
0.55899
0.59156
0.615546
0.587773
0.618242
0.510945
0.510666
0.510133
0.506372
0.504632
0.506979
0.0573878
0.0246496
0.066014
0.0483498
0.0261163
0.014475
-0.0152931
-0.0256029
-0.0318801
-0.0307066
-0.0161326
-0.0123996
0.173238
0.110041
0.0304187
0.0591393
-0.00200636
-0.0705223
-0.0900452
0.0162505
0.11253
0.102669
0.405771
0.654669
0.474792
0.642231
0.48519
0.54088
0.468514
0.459538
0.484217
0.380527
0.461057
0.254835
-0.25411
-0.163453
0.796353
0.806223
0.581296
0.40816
0.175142
0.350824
0.539135
0.468117
0.503449
0.572379
0.558909
0.0331155
0.0891992
0.380708
0.607396
0.242708
0.233565
0.226903
0.41278
0.330096
)
;

boundaryField
{
    wall-4
    {
        type            zeroGradient;
    }
    velocity-inlet-5
    {
        type            zeroGradient;
    }
    velocity-inlet-6
    {
        type            zeroGradient;
    }
    pressure-outlet-7
    {
        type            fixedValue;
        value           uniform 0;
    }
    wall-8
    {
        type            zeroGradient;
    }
    frontAndBackPlanes
    {
        type            empty;
    }
}


// ************************************************************************* //
