/*--------------------------------*- C++ -*----------------------------------*\
| =========                 |                                                 |
| \\      /  F ield         | OpenFOAM: The Open Source CFD Toolbox           |
|  \\    /   O peration     | Version:  2206                                  |
|   \\  /    A nd           | Website:  www.openfoam.com                      |
|    \\/     M anipulation  |                                                 |
\*---------------------------------------------------------------------------*/
FoamFile
{
    version     2.0;
    format      ascii;
    arch        "LSB;label=32;scalar=64";
    class       surfaceScalarField;
    location    "77";
    object      phi;
}
// * * * * * * * * * * * * * * * * * * * * * * * * * * * * * * * * * * * * * //

dimensions      [0 3 -1 0 0 0 0];

oriented        oriented;

internalField   nonuniform List<scalar> 
1300
(
3.75095
5.62643
-3.31261
3.75095
-7.76084
5.62643
-4.39823
4.39823
-0.329304
0.329304
1.87639
1.87457
-2.6896
2.6896
-2.03623
2.03623
-2.52144
2.52144
-5.24647
5.24647
-5.06879
5.06879
4.6526
-4.6526
-6.31483
6.31483
-0.938476
0.938476
-3.68603
3.68603
3.16959
-3.16959
-2.01893
2.01893
0.0731402
-0.0731402
-0.55347
4.30442
3.19748
3.19748
-2.0101
2.0101
-4.8697
4.8697
6.21809
-6.21809
5.29677
-5.29677
-1.98416
-2.47333
1.80737
-11.4819
-5.95347
-5.95347
-8.44038
8.44038
-2.81395
2.81248
2.94639
-2.94639
-1.77037
1.77037
-4.3616
-0.0366281
-4.3616
4.3674
0.0308239
4.3674
-0.439377
0.110073
-0.439377
4.00675
-4.00675
0.228506
0.100798
0.228506
3.06539
-3.06539
-1.87712
3.75351
1.87383
-1.8719
6.17632
-1.87905
3.75362
-6.01448
6.01448
-2.93407
0.244469
-2.93407
2.47808
0.211519
2.47808
-6.84925
6.84925
-2.08264
0.0464103
-2.08264
2.00205
0.0341751
2.00205
2.88187
-2.88187
-2.62844
0.107003
-2.62844
2.39286
0.128577
2.39286
0.353515
5.27292
-5.97994
8.79242
-5.27292
0.0264404
5.20839
0.0380889
5.20839
-5.10593
0.0371431
-5.10593
5.01275
0.0560378
5.01275
4.73673
-0.0841294
4.73673
-4.77143
0.118824
-4.77143
-3.37002
-4.04936
-6.46443
0.149594
-6.46443
-1.03004
0.0915633
-1.03004
0.823468
0.115008
0.823468
-3.68747
3.68747
-4.10737
0.421341
-4.10737
3.12396
0.045634
3.12396
1.86849
1.88247
5.61944
-5.61944
2.44985
-1.97986
-0.0390697
-1.97986
-2.09626
-3.20051
2.09626
-0.0773327
-0.147724
0.220864
-0.147724
3.15945
0.0380357
3.15945
2.23709
0.155773
-2.23709
0.226993
3.27914
-3.27914
1.33702
0.67308
1.33702
-5.56389
5.56389
4.95642
0.0563294
-4.95642
0.0867235
6.15633
0.0617607
6.15633
-6.19952
-0.0185706
-6.19952
2.52681
-5.00015
-2.632
6.13406
0.180773
-6.13406
0.18059
2.91836
0.0280314
2.91836
-2.91894
2.91894
-2.98482
0.0384278
-2.98482
-2.16893
0.398562
-2.16893
1.47222
0.298148
1.47222
-4.26436
-0.0972422
-4.26436
-4.25659
0.149223
4.25659
0.110812
1.13114
-1.13114
-0.57486
0.135483
-0.57486
-4.13042
-0.133934
4.13042
-0.123675
-3.89557
-0.111179
-3.89557
-3.0246
0.039778
3.0246
0.0407856
3.1129
0.0465445
-3.1129
0.0475174
-1.87081
3.75328
-1.88014
3.75397
-5.63512
-0.379365
-5.63512
6.3252
-0.310716
6.3252
3.32728
0.358745
-3.32728
0.39321
2.30854
0.169547
2.30854
-6.81112
-0.0381311
-6.81112
6.83461
0.0146378
6.83461
2.1782
0.130338
-2.1782
0.0955632
1.97597
0.0260831
1.97597
2.90223
-0.0203564
2.90223
-2.87583
-0.00603765
-2.87583
2.79117
-2.79117
2.71634
0.0748243
-2.71634
0.0878998
-11.1331
11.1145
-0.0353015
-11.0978
5.17308
5.17308
4.16282
0.573909
4.16282
-4.98949
0.218061
-4.98949
2.69017
-5.32217
3.08862
-6.45864
4.65847
-16.1403
4.29244
-8.3418
6.70242
-6.70242
6.59221
0.110202
-6.59221
0.127789
-1.1491
0.119064
-1.1491
-3.08601
-0.601462
-3.08601
4.3289
-0.641436
4.3289
-3.0281
3.0281
-3.07741
0.049306
3.07741
0.0465472
1.9658
0.0101677
-1.9658
-0.0140597
0.170156
0.0583499
-0.170156
0.0224314
3.4936
-0.214464
3.4936
-3.08012
-0.199014
-3.08012
-1.2479
0.098793
1.2479
0.0891193
-5.81458
0.250687
-5.81458
-11.1907
0.0929262
-11.1527
-6.10659
-6.10659
2.33379
11.1262
-2.89373
0.0178958
2.89373
0.0246363
2.97501
0.0530894
-2.97501
0.0560792
-2.85819
0.0670229
2.85819
0.0607474
-2.54359
0.374665
-2.54359
-1.07185
1.07185
-1.23643
0.164578
1.23643
0.235788
1.40396
-0.272818
1.40396
0.70489
0.118578
-0.70489
0.13003
-3.7944
-0.101168
-3.7944
6.56024
-0.235046
6.56024
-2.96459
-0.115531
2.96459
-0.0623685
-0.0332991
11.1478
-5.13979
0.0338517
5.13979
-11.2096
11.2435
-3.21373
0.670134
3.21373
0.949098
5.28319
0.280707
-5.28319
0.293698
6.78558
0.0490273
-6.78558
0.0831659
-2.59362
-0.492389
-2.59362
-5.05377
-0.581348
5.05377
-0.724864
-11.4751
-0.203323
11.6784
-11.419
6.0179
0.138424
-6.0179
11.3819
-1.03084
-0.100304
1.03084
0.0410131
1.73173
-0.327765
1.73173
3.69124
-0.197642
-3.69124
-0.103157
-6.71434
-0.0967741
6.71434
-0.154098
-2.14875
-0.444869
2.14875
-0.417022
-4.26713
4.30516
1.9092
-2.38302
-2.61713
-5.58352
1.85184
1.90144
4.30169
-10.1296
-6.01071
-9.94904
7.26101
-6.96731
-9.23884
9.15471
7.90301
-8.01419
-5.78478
5.83132
6.48295
-6.44217
1.87883
1.87468
8.02311
-7.77864
-15.589
15.2096
7.57258
-7.52617
15.7378
-15.776
-17.8151
17.8641
-5.70769
5.8147
-6.7406
6.73456
-6.9768
6.91443
-2.83543
-3.62321
13.0879
-12.9383
8.59745
-8.63652
-8.62264
9.04398
3.3826
0.92256
3.42915
-1.88214
3.76096
-1.87148
3.78068
2.7325
-5.56793
2.58967
-5.2068
4.37104
4.22642
-4.2937
-1.28982
-5.92492
5.95295
-5.81305
5.8738
9.14568
-9.18231
-1.88518
3.75985
-1.8688
3.77024
-3.42501
-2.35977
3.37938
0.922315
8.05578
5.03211
-8.23655
-1.71249
-8.04599
7.84835
-8.23364
8.03463
-0.433348
5.81887
-5.38552
4.43635
-1.5626
7.38147
5.69841
5.91647
5.86584
-5.58513
1.10148
-6.487
-6.40027
-2.22969
2.36518
2.14508
-2.04428
6.15152
1.75149
6.02785
-5.76708
-2.2471
-5.86825
3.82056
2.01076
3.86987
4.07851
2.40444
4.11829
3.03042
-3.03598
0.00556556
-3.05666
6.08707
0.723871
-5.41642
-4.49411
4.97738
3.04572
5.1889
-5.55639
-2.22224
-5.16318
-9.53018
-6.05882
-10.1115
10.0727
5.13689
9.76203
-11.9418
11.7877
4.81828
2.7543
4.85245
-4.95963
-2.56654
-4.86406
11.6314
-2.63773
-8.99371
-10.3012
-7.51388
10.2865
5.45129
10.9416
6.92252
11.0247
4.41616
7.21528
-9.86746
2.35357
-3.86838
-1.83932
-3.78048
3.6759
2.1388
3.80447
-4.21761
-2.52299
-4.19971
-4.29594
-2.68086
4.31629
2.41827
-4.41797
-3.81568
4.5335
2.38093
4.03275
-10.0435
4.30904
-7.93226
-9.17759
-3.76071
-9.0498
3.53402
2.60898
-6.143
-2.03392
8.53054
-4.30412
7.24072
-5.18959
-3.44693
-5.20365
-6.8873
-1.73534
-6.73808
-8.87098
8.37859
-9.167
8.52557
12.4983
-5.63734
-6.86095
-3.96846
-2.4737
3.92095
-0.4918
-3.71046
3.71603
0.050502
3.83118
4.75374
4.26194
-3.88428
-1.92877
-3.8282
3.82408
2.04972
3.8911
6.84354
2.30214
6.87437
-6.61907
-2.56324
-6.71631
9.03165
-8.63309
2.83241
-2.73362
5.40102
2.6336
-5.18656
-2.85943
6.2094
-3.2201
-2.9893
-12.1986
10.5255
1.67307
-4.8171
-0.380748
-0.453889
-5.48734
-3.7515
5.36851
0.54796
11.0735
7.32195
-5.5114
5.76209
6.16698
6.22331
-0.17696
5.8015
-5.13137
5.2527
-2.61278
-2.63992
5.48066
-5.61459
-1.23565
-5.53104
4.29539
0.413256
1.45074
-1.22988
-1.76614
-0.463558
-1.63611
1.24406
0.901024
1.30241
0.957817
1.40736
-2.95576
0.526848
2.42892
-1.99795
-1.51743
-3.83869
-1.14525
4.98394
5.74332
2.10503
-5.64016
-0.22809
2.51491
-2.3999
-0.792202
-3.04649
2.25105
-3.04325
-3.66751
-2.09044
5.75795
-3.36958
-0.458624
3.31649
0.553381
-3.82726
-2.09767
3.78883
0.329459
-3.12876
6.19144
-3.06268
-5.05753
2.52751
3.55957
4.53827
-4.7895
2.44776
2.34175
-1.22994
4.24597
0.942935
4.41551
-6.94227
4.72002
5.80645
3.23754
-6.16519
1.00201
-5.94026
8.55096
-7.37668
-1.17427
4.16914
4.38182
7.05495
5.44334
-5.6683
12.7233
-1.20723
-6.16945
7.14749
-3.90995
4.85232
-8.76227
-10.2957
4.1262
-9.1252
10.8975
-1.77234
-3.61857
-8.32324
12.7438
-1.20374
-11.54
8.55829
-4.28883
-4.39718
8.68601
-6.92656
6.96372
-1.99526
-4.96846
-10.0894
-5.68653
10.1862
1.60151
-9.92878
12.2824
-2.71351
4.12685
0.725605
4.15293
3.30581
-5.48702
2.1812
3.62075
-5.61601
2.08273
-7.56975
-6.71672
12.0471
-5.3304
-10.4774
-9.49784
-0.979591
2.53246
9.7499
-9.45498
7.4127
2.04228
3.30043
0.590665
-3.37526
-0.40522
0.235488
4.51544
-4.75093
4.03996
4.19574
3.26583
1.24961
3.84561
2.10734
-3.87025
-0.329465
-4.16439
1.48352
-1.74612
-3.69444
5.17797
-4.06745
0.373012
-2.7442
-3.49729
6.24149
-4.58352
3.03538
3.15606
5.0851
-4.91311
1.41582
-2.39266
-2.52045
2.65163
-4.39775
1.99407
3.1839
4.37501
0.559331
5.86882
6.17831
-8.4778
0.545538
11.2104
-9.49793
2.46131
8.56343
-9.87401
0.376171
-8.67363
0.99748
-5.3016
-5.14552
5.19805
-6.93339
-3.56422
6.21714
0.65723
-6.32795
-0.410131
-6.02992
-2.84106
-6.47479
-3.04043
-6.12657
-8.70873
-1.65055
-7.05818
6.72803
-6.67567
-3.43587
7.40053
1.12504
-7.40461
7.30431
-7.48299
7.15522
0.0954381
3.62059
4.35738
1.88368
-2.39065
4.27433
-5.12215
7.42429
-8.72512
3.60296
4.20798
-6.77123
-4.51713
5.01773
4.01392
5.31588
8.87371
-10.3369
1.46318
-10.6396
11.9727
-1.33313
-16.3951
5.75549
-7.52135
2.43371
0.398702
2.55278
0.54257
2.49704
-3.03961
-2.19105
-2.10193
-2.44146
-3.46523
5.90669
1.08641
-3.53141
2.445
-3.56734
4.65375
-0.217864
-3.31354
5.26628
-2.76924
5.66498
-3.7852
1.87978
3.44016
5.755
-2.31484
4.39511
-1.7615
1.92956
-4.2444
-1.53568
-2.95744
5.09624
-3.28405
3.65706
-0.345309
4.00237
-4.04751
0.827408
-0.781675
3.41406
3.64105
4.31645
-3.06684
2.91725
-4.67875
-1.32715
-4.11942
-0.935527
-0.254969
-3.69565
3.95062
5.972
-6.22697
-5.23009
9.51968
-4.28959
7.68701
-5.37736
-2.30965
-4.24821
-4.38487
3.87355
1.92795
9.61496
0.208832
-5.58619
-4.92253
-3.97343
3.09703
2.15566
-1.7281
3.40117
2.18199
-0.731247
0.424324
0.878083
1.78047
-1.35614
0.329365
1.4511
-0.900514
1.69836
0.816548
-1.81694
0.180834
-1.32864
3.57969
1.10027
-2.0013
0.645152
0.972677
-3.58545
5.06894
-2.69407
-2.37486
6.04162
1.13864
-3.83271
4.3924
-3.97915
2.39664
-3.54189
-1.43608
-5.41523
-3.66374
-2.51775
4.96274
-3.38894
5.49398
1.29523
-5.26589
6.56112
-3.72881
1.63837
-3.04915
3.8657
-0.924936
-2.12422
2.90282
2.85513
-3.08298
0.0364884
-0.180157
2.40856
-2.58872
-0.634689
-2.63264
-4.5736
4.90305
-2.10518
4.55293
2.16915
-1.91724
6.47017
1.80867
-3.72591
-3.24886
-3.70748
-1.38416
3.1541
-0.572917
-4.29115
-5.54138
4.16081
0.254705
-7.0577
7.87702
-0.819318
-4.01198
-0.708048
4.87719
-6.08769
0.471679
-4.00496
3.87206
4.81499
5.0697
-11.3203
-0.219702
-6.18344
1.12209
-7.30554
5.50391
-3.53405
7.66025
-10.3142
6.87838
-9.18921
6.48598
-0.81956
6.23941
-4.05821
2.7543
-8.44083
-6.83933
5.55243
-2.79813
6.27803
-3.17437
9.45241
-5.88788
5.34023
4.11217
-1.03352
-4.17013
-5.3332
4.29968
0.0070294
4.15996
4.98035
-2.873
4.65088
2.26986
-4.66252
-2.12789
-6.49594
1.83342
-3.33988
-1.92122
3.75464
3.16388
3.75455
1.23419
-3.34933
7.1949
-8.17449
-1.8645
-3.28101
5.31782
-1.01814
3.43071
-6.71173
-1.87089
4.78586
-0.779913
-4.00594
0.85148
-4.4157
1.67515
-6.09085
5.25824
-5.66837
2.22179
-9.74314
-5.18282
-5.1418
-2.25816
-5.22483
-7.56215
5.30399
-1.80666
5.49764
-8.49385
7.71394
-3.47885
8.78284
-5.42487
-1.04992
5.84189
1.31333
10.0962
0.223995
-4.74113
-1.92169
3.83852
-1.91683
1.17535
-3.47166
0.36686
2.49308
3.54854
-6.78847
0.0172476
-4.72388
-3.91463
7.92855
5.60504
11.577
1.24015
9.10815
-1.1796
10.3483
4.13628
4.37206
-2.98302
4.4462
0.967605
4.57057
-0.928145
2.80793
1.62463
1.71619
0.683708
2.30324
1.33782
3.13064
0.0910342
-2.0109
4.61851
-8.59194
-0.967683
-8.01803
1.13668
5.70566
-4.56898
2.93001
-0.774347
1.01318
-0.127475
-1.20093
1.3284
-2.7674
-1.93217
-0.48107
-1.70023
2.34538
1.87946
-1.86431
-0.903082
0.355671
-4.01941
3.18622
-3.14973
-0.2946
6.26652
-2.81744
0.22872
-1.17906
-2.40392
-2.86747
2.68664
6.1762
0.293975
3.11352
5.19703
3.09936
0.22636
3.88261
-5.65494
-3.68714
-5.87465
-0.370734
4.50646
1.76544
7.98445
5.87762
4.85948
-1.85225
-10.0267
6.50913
-2.06293
5.176
-1.17006
-4.92079
5.04992
2.37437
-5.70715
0.0387745
-4.88202
-6.94494
-0.511737
8.22568
-9.58443
8.53451
5.69346
1.36472
-4.40135
-0.740454
4.23677
0.135292
10.4836
-1.12902
-6.7082
7.83722
-4.57664
3.60896
0.73557
2.6656
2.06397
1.28962
-5.41857
-9.98756
-2.0685
-1.51695
-4.44337
0.540579
-2.42004
6.21788
-2.60892
3.90822
5.2283
6.24148
-2.12849
-4.09848
6.41808
-2.50986
3.73162
)
;

boundaryField
{
    wall-4
    {
        type            calculated;
        value           uniform 0;
    }
    velocity-inlet-5
    {
        type            calculated;
        value           uniform -3.75095;
    }
    velocity-inlet-6
    {
        type            calculated;
        value           uniform -5.62643;
    }
    pressure-outlet-7
    {
        type            calculated;
        value           nonuniform List<scalar> 8(3.31261 7.76084 4.45749 9.6745 7.41938 5.15881 5.77879 8.95091);
    }
    wall-8
    {
        type            calculated;
        value           uniform 0;
    }
    frontAndBackPlanes
    {
        type            empty;
        value           nonuniform List<scalar> 0();
    }
}


// ************************************************************************* //
