/*--------------------------------*- C++ -*----------------------------------*\
| =========                 |                                                 |
| \\      /  F ield         | OpenFOAM: The Open Source CFD Toolbox           |
|  \\    /   O peration     | Version:  2206                                  |
|   \\  /    A nd           | Website:  www.openfoam.com                      |
|    \\/     M anipulation  |                                                 |
\*---------------------------------------------------------------------------*/
FoamFile
{
    version     2.0;
    format      ascii;
    arch        "LSB;label=32;scalar=64";
    class       volVectorField;
    location    "77";
    object      U;
}
// * * * * * * * * * * * * * * * * * * * * * * * * * * * * * * * * * * * * * //

dimensions      [0 1 -1 0 0 0 0];

internalField   nonuniform List<vector> 
918
(
(0.98516 -0.000508048 0)
(0.00501681 2.96625 0)
(0.00753819 0.88616 0)
(0.979705 0.00214522 0)
(-0.0121206 2.0638 3.75901e-20)
(-0.0070484 2.9488 -2.44502e-18)
(0.821269 1.16628 4.51066e-19)
(0.0971965 0.0658307 -1.45551e-20)
(0.999909 -0.000275453 0)
(0.0661423 0.734465 0)
(0.0145162 0.478069 0)
(0.731613 0.0049273 0)
(0.0110883 2.9304 0)
(0.00275905 2.79491 0)
(-0.0178644 3.14768 7.81374e-19)
(-0.021175 1.91788 1.0614e-20)
(0.286349 0.0571392 1.01805e-18)
(0.188998 1.14382 3.17495e-19)
(0.962715 0.00501608 0)
(0.00729734 0.452627 0)
(-0.0116598 0.0416439 -6.77817e-19)
(1.00197 -0.00497445 0)
(1.00023 -0.00978347 0)
(0.97574 -0.00643872 0)
(0.598451 0.029655 0)
(0.0135944 2.64269 0)
(-0.0148272 2.90997 8.98174e-19)
(0.0111932 0.931543 0)
(-0.0192088 1.18271 0)
(0.013464 0.915053 0)
(-0.0145588 2.58833 0)
(-0.00106453 2.11746 -3.00225e-20)
(-0.0110954 1.89869 0)
(-0.0206099 2.9876 -8.78121e-23)
(-0.0166843 3.00529 1.90019e-18)
(0.00209949 3.00018 0)
(0.871459 -0.00965761 0)
(0.401872 0.931548 1.80696e-19)
(0.807629 1.17996 -5.16495e-19)
(0.958661 1.02661 5.61643e-19)
(0.675461 1.27176 -1.04847e-19)
(0.675742 1.24544 6.01921e-19)
(0.126559 0.120063 1.41981e-20)
(0.132459 0.0569922 0)
(1.16494 0.565382 0)
(0.0963947 0.0895159 6.4097e-20)
(0.0633717 0.045379 -6.65189e-20)
(0.919925 -0.00745856 0)
(1.00027 0.000162527 0)
(0.999909 0.000339265 0)
(1.00363 -0.00775764 0)
(1.00096 -0.000918744 0)
(1.00017 3.79756e-05 0)
(0.0729055 1.82619 -7.69242e-19)
(0.0324106 0.947617 0)
(0.0980431 0.814565 0)
(0.0145924 0.896705 0)
(0.0421767 0.652246 0)
(0.00683199 2.01506 0)
(-0.00115786 0.777664 0)
(0.0154571 0.499223 0)
(-0.00792672 0.768911 0)
(0.00862932 0.465726 0)
(0.842103 -0.015658 0)
(0.842251 0.0273159 0)
(0.758609 0.00134691 0)
(0.801263 0.0284803 0)
(0.700473 0.0175112 0)
(0.0146836 3.00041 9.06002e-19)
(0.0114915 3.00804 0)
(0.00611178 3.00275 0)
(0.0135327 2.99735 1.02737e-23)
(0.00796809 2.95849 -1.34654e-18)
(0.0144907 2.98205 0)
(0.0108587 2.90361 0)
(0.0245853 2.93085 2.05184e-24)
(0.00465968 2.82479 0)
(0.0301707 2.91648 0)
(-0.00521368 2.74576 0)
(0.304195 3.53945 0)
(-0.131555 3.61988 0)
(0.137255 3.23753 -7.27136e-19)
(-0.0136597 2.97634 0)
(-0.0258413 1.98569 0)
(-0.00682124 2.16979 -1.04686e-20)
(-0.01514 1.92614 5.19113e-21)
(0.338705 0.139047 -3.5355e-19)
(0.317536 0.0336658 -3.43566e-19)
(0.293381 0.142954 -1.05846e-18)
(0.249364 0.0641594 -6.87493e-19)
(0.229665 0.985015 0)
(0.272599 1.29404 -3.69025e-19)
(0.36667 1.22893 6.15635e-19)
(0.987429 0.00857449 0)
(0.941845 0.00582284 0)
(1.0003 0.000581563 0)
(1.00286 0.00931017 0)
(1.00301 0.00847303 -2.74478e-18)
(0.991906 0.00969522 2.07275e-18)
(-0.0125982 0.769673 0)
(0.00900747 0.457832 0)
(-0.0503569 1.00826 0)
(-0.0292392 0.817648 0)
(0.0033674 0.45759 0)
(-0.0711253 0.0896372 2.10344e-19)
(0.0436258 0.0524844 0)
(0.993556 -0.00836874 0)
(0.954473 -0.00653395 0)
(0.744512 0.0286944 0)
(0.679019 0.0275282 0)
(0.660818 0.0244525 0)
(0.972482 -0.00713381 0)
(0.588625 0.073396 0)
(0.455375 -0.00466952 1.54145e-18)
(-0.0374137 2.86167 6.60423e-19)
(0.0413859 2.90986 0)
(0.0534642 2.8862 0)
(-0.00462007 2.70096 0)
(-0.0133887 2.98515 8.49723e-19)
(-0.0178191 2.89499 0)
(-0.0153971 2.98809 -2.63626e-18)
(-0.0133213 2.92517 9.02579e-19)
(-0.0324176 1.34935 0)
(-0.00509116 1.37932 0)
(-0.00705187 2.13515 5.31349e-22)
(-0.00612325 2.09712 0)
(-0.0233166 1.90571 0)
(0.938697 -0.00735907 0)
(0.857652 -0.00997212 0)
(0.863071 0.00501105 0)
(0.949664 -0.00778873 0)
(0.884132 -0.00819971 0)
(0.513105 1.12433 -2.28123e-19)
(0.562292 1.1753 0)
(0.366622 0.876592 3.36685e-20)
(0.309462 0.735319 0)
(0.920837 1.06284 -1.55154e-19)
(1.04007 0.87271 3.16836e-19)
(0.359645 1.35601 0)
(0.527654 1.32728 0)
(0.549667 1.26575 0)
(0.121411 0.185149 -3.02918e-19)
(0.160935 0.118442 0)
(0.17438 0.0872023 1.89522e-19)
(1.01086 0.927011 0)
(1.08539 0.780768 0)
(1.11067 0.722491 -2.5325e-19)
(1.1443 0.62481 0)
(1.19459 0.408182 5.77002e-20)
(0.957803 -0.00868281 0)
(0.962539 -0.010021 0)
(0.9018 -0.00798975 0)
(0.984211 -0.00914013 0)
(0.974725 -0.00932249 0)
(0.937152 -0.00637514 0)
(1.00019 0.00234102 0)
(1.0009 0.00141668 0)
(0.999909 0.000856115 0)
(0.0355076 2.07274 4.26426e-19)
(0.118604 1.76927 0)
(0.0181105 2.18628 6.54756e-19)
(0.0459746 1.88039 -5.45253e-19)
(0.106663 1.14908 -2.59995e-19)
(0.0496331 1.02799 0)
(0.142816 0.980801 0)
(0.00823092 0.850547 0)
(0.0218802 0.588475 0)
(-0.000847066 2.24148 -7.83555e-22)
(0.0159692 2.01897 0)
(-0.00166766 2.24384 -2.67012e-20)
(0.00825952 2.02462 4.02089e-20)
(0.00514701 0.818681 0)
(0.00404241 0.792732 0)
(0.0145966 0.53881 0)
(-0.00947249 0.762793 0)
(0.00480864 0.456577 0)
(0.938816 0.00986598 0)
(0.850866 -0.0145917 0)
(0.92789 0.000489916 0)
(0.842866 -0.0128627 0)
(0.810322 -0.000803855 0)
(0.89896 0.0214837 0)
(0.874826 0.0251124 0)
(0.784258 -0.00128827 0)
(0.00577024 3.06497 -8.43251e-21)
(0.0167168 3.05764 0)
(0.0147055 2.96902 0)
(0.00873944 2.87621 0)
(0.919232 3.9507 0)
(1.23226 3.28447 9.24543e-19)
(0.0689733 3.06861 0)
(-0.0293408 2.90153 0)
(-0.00931598 1.40206 0)
(-0.0313636 1.69775 0)
(-0.0180034 1.53446 0)
(-0.0302087 2.54725 -8.69362e-21)
(-0.0140416 2.23985 0)
(-0.0199818 2.3871 0)
(-0.00111176 1.95244 6.88855e-22)
(-0.0033772 2.24029 -9.55606e-21)
(-0.00528046 2.20442 -5.45072e-21)
(-0.00902776 1.93742 0)
(0.3907 0.122712 5.40286e-19)
(0.366006 0.0208173 -5.30151e-19)
(0.258541 1.58543 0)
(0.278058 0.758165 -3.15665e-19)
(0.176874 1.6727 -1.04691e-18)
(0.225754 1.22096 1.04918e-18)
(0.901962 0.00620923 0)
(0.967361 0.0111757 0)
(0.974526 0.0108204 0)
(0.923262 0.00637925 0)
(-0.0122493 0.761396 0)
(-0.0128958 0.763188 0)
(0.00606936 0.450856 0)
(0.0866379 0.0674983 5.90823e-19)
(0.0812769 0.0467783 -6.97695e-19)
(0.0412795 0.0378965 0)
(1.10138 0.0869996 2.69506e-20)
(1.08341 0.0399538 0)
(1.01477 0.0403616 0)
(0.908394 -0.0051315 0)
(0.444335 0.103992 0)
(0.504152 0.0869742 -2.46364e-18)
(0.409881 0.0144351 9.2156e-19)
(0.00862847 2.98113 7.11416e-19)
(-0.0322441 2.8655 4.78994e-20)
(0.00357833 3.0503 -1.78623e-20)
(0.020219 3.04331 6.35048e-19)
(-0.0150064 2.99659 2.96491e-20)
(-0.0129203 2.94946 -1.1933e-22)
(-0.0172529 3.01193 -5.49121e-19)
(0.0148588 3.0238 3.97623e-19)
(0.00738488 3.03683 -6.29212e-19)
(0.934217 -0.0011548 0)
(0.93962 -0.00315806 0)
(0.846217 -0.00945416 0)
(0.956435 0.0121014 0)
(0.942397 0.0136675 0)
(0.881526 0.0054627 0)
(0.916104 0.0180708 0)
(0.925343 0.0156958 0)
(0.837779 0.00150592 0)
(0.715444 1.4012 3.86687e-20)
(0.748747 1.50977 0)
(0.180439 0.313489 7.06024e-20)
(0.229654 0.669422 5.67772e-19)
(0.262327 0.719607 -3.31818e-19)
(0.262329 0.518553 6.60502e-19)
(0.346868 0.812822 1.59396e-18)
(0.141098 0.230914 3.7617e-19)
(0.248284 0.145438 7.27245e-19)
(0.204933 0.139722 1.88473e-19)
(0.214147 0.0732825 3.56879e-19)
(1.18352 0.466238 6.73871e-20)
(1.19845 0.258282 6.24711e-20)
(0.0102887 2.23481 2.51574e-19)
(0.0402404 1.94847 0)
(0.971577 0.0295968 0)
(0.943951 0.0140716 0)
(0.869914 -0.0177726 0)
(0.0112549 3.07414 0)
(0.0196543 2.94417 1.16114e-18)
(0.0164003 2.95625 0)
(0.00646026 2.85053 -1.15162e-18)
(0.00640802 3.09163 2.81562e-19)
(0.00709938 3.08252 0)
(0.78149 1.81092 -1.58096e-19)
(1.24013 2.48579 4.01083e-19)
(0.76342 1.95014 -1.22528e-18)
(0.0194213 2.98014 -6.11581e-19)
(0.0349446 2.99843 0)
(-0.0348482 2.87578 0)
(-0.00376992 2.22358 -1.30562e-20)
(-0.002905 2.24461 1.58506e-20)
(0.00159524 1.98705 -7.16016e-21)
(0.278293 1.39492 1.02443e-18)
(0.239661 0.553477 -7.02385e-19)
(0.0636945 1.99769 7.60716e-19)
(0.135083 1.88402 -9.08506e-19)
(0.180074 1.51225 9.51886e-20)
(0.00505835 3.11792 -1.58555e-18)
(0.0143583 3.11839 1.71009e-18)
(-0.00934876 2.98051 7.82274e-19)
(-0.00377673 2.9771 -7.39496e-19)
(-0.0213526 2.8809 -7.96729e-19)
(0.00849927 3.09868 -2.09021e-18)
(0.00175636 3.10672 2.06899e-18)
(0.283088 0.696234 0)
(0.249197 0.684863 -1.18192e-18)
(0.0959317 0.225061 5.24727e-19)
(0.358252 0.940106 1.11383e-18)
(0.196162 0.27707 -1.71734e-18)
(1.18905 0.176057 6.20074e-20)
(1.19878 0.313139 0)
(1.17745 0.12348 -4.95934e-21)
(0.00157564 2.2531 -1.43691e-21)
(0.0049492 2.24472 0)
(0.0245421 1.98438 0)
(0.33998 1.30394 -3.67746e-19)
(0.375201 1.15185 -8.00082e-19)
(0.210883 0.379307 1.42693e-18)
(1.00588 -0.0108239 0)
(1.00767 -0.00763127 5.06319e-19)
(-0.0273583 1.33023 0)
(-0.0401385 1.3303 0)
(1.00221 0.00351646 1.81286e-21)
(1.00367 0.00947438 1.03387e-18)
(-0.0186602 2.5319 1.10183e-20)
(-0.0238638 2.57447 0)
(0.0339499 3.17647 4.0246e-19)
(0.389295 3.48232 0)
(1.17822 0.66688 -5.56299e-20)
(1.01284 0.0131457 -2.12633e-21)
(1.02136 -0.0102704 0)
(1.0017 0.000132863 7.93021e-23)
(0.112717 1.37089 0)
(0.143235 2.56682 0)
(0.0338851 1.31759 0)
(-1.46492e-05 2.61782 2.5627e-20)
(-0.0213637 2.57444 1.03749e-21)
(0.9992 0.0313029 2.46063e-21)
(1.06329 0.00487124 0)
(1.09801 0.0254539 0)
(-0.0298161 1.74131 0)
(-0.018242 2.57518 0)
(-0.00841264 1.31833 0)
(0.311413 1.48342 -1.68605e-19)
(1.01131 -0.00960907 0)
(1.0094 -0.0149144 0)
(1.00237 0.000757393 6.47092e-19)
(1.00547 -0.00479544 -7.60536e-19)
(1.00118 -0.000964303 0)
(-0.016693 1.46949 0)
(-0.00706199 1.38181 0)
(-0.00909568 1.42703 0)
(-0.0124217 1.30541 0)
(-0.022902 1.29247 0)
(-0.0143812 1.2759 0)
(1.0351 -0.00599872 0)
(1.01955 0.0157544 -9.52749e-22)
(0.823736 1.27589 2.62499e-19)
(1.00223 0.000324911 -6.44565e-19)
(1.00406 0.00526577 7.54685e-19)
(1.00118 0.00207848 0)
(1.01271 0.0103803 6.41558e-19)
(1.00798 0.00831814 -7.77345e-19)
(1.00856 0.0146961 0)
(-0.0233899 2.60273 0)
(-0.025501 2.58209 -2.00676e-20)
(-0.0227573 2.59632 1.42308e-20)
(1.23939 0.269583 5.77126e-19)
(1.16358 0.0877006 0)
(0.0392244 3.07833 -9.01157e-19)
(0.0649759 2.85695 -6.55376e-20)
(0.138135 3.19174 1.38243e-18)
(0.133384 3.21928 -1.93465e-19)
(0.132876 3.22989 0)
(0.018731 3.13708 2.3256e-19)
(0.0737602 3.15995 8.88569e-19)
(0.0668054 3.18473 -4.38499e-19)
(0.0212157 3.13013 0)
(0.560159 0.282493 0)
(0.499081 0.30354 0)
(1.1503 0.703054 1.24954e-19)
(1.14344 0.824499 -1.06905e-19)
(1.20607 0.589848 0)
(1.23323 0.523576 0)
(1.016 0.0133926 -1.19587e-18)
(1.01499 0.0142451 1.50132e-18)
(1.02541 -0.00978312 0)
(1.02348 -0.0118333 0)
(1.00642 0.00265553 0)
(1.01041 0.00375711 0)
(1.00458 0.00187074 0)
(1.00978 0.00626584 0)
(1.0078 0.00596995 0)
(1.00451 0.00473053 0)
(0.100987 1.36935 0)
(0.0985307 1.33204 0)
(0.131755 1.40573 0)
(0.149999 1.41038 0)
(0.145295 2.59198 0)
(0.184871 2.66249 -4.22113e-19)
(0.101577 2.64701 0)
(0.0852706 2.64995 1.96888e-19)
(0.0388286 2.6728 -1.45547e-19)
(0.0211474 1.33151 0)
(0.0290155 1.25009 0)
(0.0240377 1.34136 0)
(0.0469975 1.27142 0)
(0.00362545 1.98174 6.02314e-21)
(-0.0202095 2.60231 -2.26984e-20)
(-0.00809522 2.65913 9.84254e-21)
(-0.0179382 2.67842 0)
(-0.0230496 2.60781 2.05164e-21)
(-0.023118 2.60277 1.7316e-20)
(0.0124265 1.97973 -1.09784e-21)
(-0.0076493 2.38914 3.04508e-20)
(-0.0132484 2.41228 -1.11627e-20)
(1.01251 0.0396425 1.21089e-18)
(1.00495 0.0207042 -1.50705e-18)
(1.00451 0.046888 -1.23312e-18)
(0.978366 0.0386097 1.55196e-18)
(1.0645 0.00867432 0)
(1.04959 -0.00813351 0)
(1.09502 0.0355915 0)
(1.0747 0.013248 0)
(1.07249 0.000880635 0)
(1.14102 0.084409 0)
(1.11252 0.0453002 0)
(1.11659 0.0330318 0)
(-0.0255039 2.42539 1.37153e-21)
(-0.0146396 2.01188 0)
(-0.017117 2.21244 0)
(-0.0201736 2.59577 -1.22704e-20)
(-0.0173698 2.60592 2.4963e-22)
(0.00224342 1.58167 -3.89792e-20)
(-0.00789616 1.50964 3.97352e-20)
(-0.0179372 1.39936 0)
(-0.0212739 1.40576 0)
(-0.0278704 1.4003 0)
(-0.0061118 1.31969 0)
(0.0068894 1.23993 0)
(0.38734 1.50089 2.74658e-19)
(0.430597 1.5015 1.45557e-19)
(0.597224 2.44249 -2.40371e-19)
(0.397689 2.53986 7.06874e-19)
(0.348869 2.04977 7.15765e-20)
(1.02109 -0.0080877 0)
(1.01552 -0.00973208 0)
(1.01493 -0.0154988 0)
(1.0074 -0.0010519 0)
(1.00493 -0.000902851 0)
(1.00779 -0.00467035 0)
(1.00928 -0.00358453 0)
(1.01424 -0.00434583 0)
(1.02028 0.0165042 1.17195e-18)
(1.01749 0.0154956 -1.49807e-18)
(1.02063 0.0187511 -1.18173e-18)
(1.01806 0.0170845 1.48035e-18)
(0.786932 1.32643 0)
(0.72244 1.37742 2.48558e-19)
(0.899879 1.22648 1.00016e-19)
(0.945776 1.17216 -1.33101e-19)
(1.15349 2.59704 2.81663e-19)
(0.764856 0.123132 6.00004e-19)
(1.16439 0.110475 0)
(1.21399 0.196408 -4.64617e-19)
(1.20156 0.1566 -1.98102e-20)
(1.00583 0.158821 0)
(0.126963 2.95835 5.26032e-19)
(0.102903 2.86412 -1.14378e-18)
(0.00833297 2.37706 7.6178e-19)
(0.10441 -0.17515 -3.14624e-19)
(0.334436 3.41279 -2.16954e-19)
(0.190397 3.30779 0)
(0.234219 3.34795 2.82553e-19)
(0.237765 3.03075 -1.7634e-18)
(0.330779 3.18872 0)
(0.00547855 3.12105 4.55127e-20)
(0.0162356 3.12954 -5.35333e-19)
(0.0140873 3.12567 7.87897e-19)
(0.0339911 3.13984 0)
(0.0322911 3.15008 0)
(1.2085 2.59413 0)
(0.549389 0.798347 -5.2686e-19)
(1.06972 0.997023 -1.14391e-20)
(1.00498 1.08123 0)
(0.858552 0.97572 -1.08737e-19)
(1.09643 0.898234 2.7806e-20)
(0.294096 0.312539 -8.26903e-19)
(0.644316 0.32643 -1.68238e-20)
(0.528409 0.219405 4.04805e-19)
(0.521633 0.3371 2.90778e-20)
(0.411224 0.268391 -1.16635e-18)
(0.598949 0.326446 0)
(0.711656 0.430488 6.61128e-19)
(0.708969 0.431193 0)
(0.562129 0.343285 0)
(0.471962 0.24354 0)
(0.832235 0.628652 4.06339e-19)
(1.24074 0.292137 -4.85338e-19)
(1.24132 0.431635 0)
(1.24941 0.371722 0)
(0.672863 0.195947 6.20986e-19)
(0.877046 0.559681 -3.70114e-19)
(0.776777 0.537241 6.61201e-19)
(0.963489 0.451436 -7.31314e-19)
(1.01903 0.0150428 8.03329e-19)
(1.01745 0.0143993 -8.07721e-19)
(1.01589 0.0152537 0)
(1.03657 -0.00554055 0)
(1.02996 -0.00833045 -7.57317e-19)
(1.02801 -0.0119296 7.49789e-19)
(1.02491 0.0107495 0)
(1.02335 0.0146205 0)
(1.01141 0.00419136 0)
(1.01417 0.00919141 0)
(1.01516 0.00423115 0)
(1.01426 0.00292807 0)
(0.0722445 1.353 0)
(0.079876 1.29866 0)
(0.148441 1.38701 8.7011e-21)
(0.282041 1.48177 8.9596e-20)
(0.177117 1.45248 1.88375e-19)
(0.209676 1.45776 -3.07194e-19)
(0.177341 1.41228 0)
(0.136038 1.59956 -7.02547e-20)
(0.120381 1.57923 0)
(0.344662 1.99885 -1.0408e-19)
(0.341376 2.33599 6.12779e-19)
(0.19667 1.46588 6.12474e-20)
(0.269391 1.39867 2.35064e-20)
(0.202354 1.39154 -1.89771e-20)
(0.278948 1.34159 -1.03633e-19)
(0.24243 1.57853 0)
(0.269685 1.61529 1.12672e-19)
(0.0305867 2.25623 -2.83112e-20)
(0.0437906 2.66206 0)
(0.0664891 2.39285 1.34881e-19)
(0.0632498 2.4137 0)
(0.0697561 2.66361 -2.18198e-19)
(0.0493418 2.69226 0)
(0.0284079 1.44863 3.76098e-20)
(0.035867 1.49565 0)
(0.0332091 1.41394 0)
(0.0276498 1.42099 -4.24411e-20)
(0.000731934 2.64544 -1.6886e-20)
(0.0298147 2.69124 1.6303e-19)
(0.0105217 2.71625 1.14591e-21)
(0.00478047 1.83946 -7.37292e-21)
(-0.00182846 1.69369 -4.91835e-21)
(0.0158261 1.30931 0)
(0.0239009 1.22411 0)
(0.0452838 1.59599 -3.041e-20)
(0.0346025 1.47598 -3.6344e-20)
(0.0383826 1.53848 4.53999e-20)
(0.0402749 1.61968 0)
(-0.0294759 2.26588 1.01345e-19)
(-0.030523 2.54244 -4.21483e-20)
(-0.0166199 2.44053 4.63042e-21)
(-0.00269821 1.85443 8.93201e-21)
(-0.0257304 2.49296 3.67954e-21)
(-0.0204446 2.43738 -5.00137e-21)
(1.01879 0.0220698 -8.03095e-19)
(1.01563 0.0283746 8.06328e-19)
(1.01269 0.0177755 0)
(1.00966 0.0712629 1.12939e-18)
(0.991872 0.0616957 -1.26119e-18)
(0.951003 0.0569561 1.41039e-18)
(1.01367 0.111999 -1.50379e-19)
(1.04303 -0.00551215 0)
(1.05147 -0.00108347 7.22079e-19)
(1.03933 -0.00968154 -7.23526e-19)
(1.07233 0.0432355 -4.294e-20)
(1.06523 0.0244181 3.70401e-19)
(1.06299 0.0574643 0)
(1.05425 0.0508289 -1.33216e-19)
(1.03198 0.0422426 0)
(1.02647 0.0389839 0)
(1.02802 0.0139317 0)
(1.02399 0.0165739 0)
(1.04019 0.0333101 2.74377e-19)
(1.03877 0.0271546 -6.06639e-19)
(1.05156 0.0349342 -2.90795e-19)
(1.04832 0.0351026 -3.20287e-19)
(1.07178 0.0657685 6.25085e-19)
(1.09738 0.0536323 0)
(1.10681 0.0980395 0)
(-0.0251806 2.27071 5.63524e-20)
(-0.0245958 2.01762 1.17319e-21)
(-0.0206938 2.02501 0)
(-0.0264952 2.43916 -5.60937e-20)
(-0.021775 2.39561 -2.48293e-21)
(-0.0326815 2.46626 5.8134e-21)
(-0.0204608 2.61518 -1.54013e-20)
(-0.0230213 2.55656 3.08432e-22)
(-0.0217048 2.5085 -4.34547e-21)
(-0.0155627 2.60889 1.21526e-20)
(-0.020592 2.611 -1.32384e-20)
(-0.00685104 1.5089 -8.60819e-22)
(0.00274851 1.62928 -3.78402e-20)
(0.372386 1.44986 -1.16089e-19)
(0.37233 1.38303 3.72853e-20)
(0.66305 1.4274 -2.40428e-19)
(0.529563 1.49425 -1.42983e-19)
(0.587729 1.46016 0)
(0.592953 2.41961 2.06887e-19)
(0.661513 2.4155 3.37521e-19)
(0.410903 2.50894 8.8138e-20)
(0.402178 2.53298 -6.07162e-19)
(0.509878 2.47364 6.13572e-19)
(0.553004 2.4563 0)
(0.487547 2.51421 -5.58769e-19)
(0.248063 2.58626 1.14051e-18)
(0.354465 2.55831 -7.70921e-20)
(0.283596 2.64799 -1.58324e-18)
(0.948168 2.37244 7.28896e-19)
(0.838052 2.37805 0)
(1.01108 0.000546029 2.62512e-20)
(1.01537 -0.00534471 -2.12928e-20)
(1.01769 -0.00344442 -3.88891e-19)
(1.01506 -0.000803819 3.91006e-19)
(1.01247 0.00130045 0)
(0.65024 1.2918 0)
(0.674297 1.18568 0)
(0.788571 1.10463 0)
(0.667477 1.14899 0)
(1.18365 2.61049 5.99795e-20)
(1.07163 2.35791 0)
(0.83279 2.15966 3.86961e-21)
(0.822984 2.42664 0)
(0.921206 2.52079 -4.23397e-19)
(0.956385 2.47691 2.81616e-19)
(0.79617 0.184718 0)
(0.73656 0.156893 1.62889e-19)
(0.905416 0.152697 9.48734e-19)
(0.821559 0.156148 -3.54856e-19)
(0.776312 0.0905569 -1.09676e-18)
(1.08323 0.243543 -8.90948e-19)
(0.999981 0.307698 -1.80754e-20)
(0.927 0.311571 8.586e-19)
(1.00695 0.237052 7.21473e-19)
(0.947205 0.201075 -1.25495e-18)
(0.908453 0.205477 1.57024e-19)
(0.946774 0.272922 -3.32854e-19)
(0.924907 0.231996 0)
(0.996175 0.198025 6.1877e-19)
(1.04738 0.196429 0)
(1.04539 0.224963 0)
(1.10795 0.122487 2.89611e-19)
(1.07229 0.182714 -1.51766e-20)
(1.07651 0.243502 -1.57612e-19)
(1.10181 0.209152 0)
(1.02161 0.0467392 6.18281e-19)
(1.03951 0.0601155 7.72101e-19)
(1.03375 0.045599 -6.14395e-19)
(1.04247 0.06819 -5.18079e-19)
(1.01822 0.0762088 -7.9584e-19)
(0.984508 0.16116 0)
(0.989103 0.106603 0)
(0.965748 0.0768707 -5.0174e-19)
(0.904106 0.0984878 1.99803e-19)
(1.04029 0.108768 7.15986e-19)
(1.06949 0.125912 -8.35458e-19)
(1.07683 0.158543 7.46114e-19)
(1.03178 0.153377 0)
(1.07497 0.113208 0)
(1.05379 0.0939377 -3.42474e-19)
(1.04386 0.099521 -5.84142e-19)
(0.578504 1.05096 1.41174e-19)
(0.602328 1.37366 -4.26709e-20)
(1.15359 2.72603 -2.29713e-19)
(1.21904 3.06856 2.68452e-21)
(1.24513 2.70919 -1.26442e-19)
(1.2733 2.69218 -3.00037e-20)
(1.20039 2.33238 -1.12571e-20)
(1.20679 2.9724 -9.59294e-20)
(1.22707 2.93802 2.3802e-19)
(1.20903 3.22117 -1.41562e-19)
(1.36831 2.95173 1.95572e-19)
(1.35654 2.8697 0)
(0.568913 0.807628 -5.0573e-20)
(0.103007 1.21689 5.6823e-19)
(0.564238 0.332362 5.42118e-19)
(0.40235 0.0777493 5.84358e-19)
(0.462424 0.310075 6.6203e-19)
(0.547383 0.425821 -1.07794e-18)
(0.550265 0.420582 8.83099e-19)
(0.45827 0.292511 -3.35051e-19)
(0.321798 0.221653 7.51028e-19)
(0.70096 0.272634 -3.59023e-19)
(0.657651 0.294038 0)
(0.588257 0.208068 6.11928e-21)
(0.746299 0.51262 3.58448e-19)
(0.728208 0.483343 -1.30308e-18)
(0.625405 0.446045 9.6143e-21)
(0.618598 0.436944 0)
(0.697885 0.717526 3.95249e-19)
(0.860945 0.781968 3.91406e-19)
(0.784443 0.864171 -4.58091e-19)
(0.90604 0.819286 -1.52488e-19)
(0.936743 0.864449 -3.66458e-20)
(0.943741 0.864072 3.75287e-20)
(0.871721 0.664357 -6.72974e-19)
(0.951723 0.717177 1.41583e-19)
(1.01131 0.731635 0)
(1.00212 0.707996 -1.91212e-19)
(1.02991 0.348597 2.10916e-19)
(1.1514 0.308972 2.86066e-19)
(1.07142 0.281046 3.64095e-19)
(1.02073 0.38139 -4.29229e-19)
(1.06957 0.443638 0)
(1.12575 0.42365 0)
(0.920897 0.384595 1.13161e-21)
(0.837532 0.319928 0)
(0.887191 0.318756 4.05695e-19)
(0.909951 0.319923 -8.49276e-21)
(0.958627 0.455122 2.03707e-18)
(0.920348 0.510335 5.22999e-19)
(0.924462 0.477087 -5.58216e-19)
(0.838764 0.465756 5.99449e-19)
(0.823799 0.460847 3.59384e-19)
(0.793731 0.44397 -3.52911e-19)
(1.02745 -0.000145714 6.47831e-19)
(1.02003 0.000138623 0)
(1.01857 0.00106535 4.22433e-19)
(1.02176 -0.00147024 -9.56912e-19)
(1.02241 0.00460985 4.64881e-19)
(1.02031 0.011678 -9.73491e-19)
(1.02122 0.0110519 0)
(1.02038 0.0113066 -2.02902e-19)
(1.01592 0.00793043 5.09063e-19)
(1.01655 0.0107312 -2.54025e-19)
(1.01727 0.0100768 1.8702e-19)
(0.0357673 1.32973 0)
(0.0419521 1.38513 0)
(0.0527288 1.32962 0)
(0.060625 1.27678 0)
(0.0754982 1.40174 -5.01168e-20)
(0.0859109 1.36741 2.20012e-20)
(0.113919 1.54874 -1.42942e-20)
(0.107974 1.38941 -5.10284e-21)
(0.0401877 1.48091 2.20053e-20)
(0.043899 1.47462 -1.6948e-20)
(0.0682583 1.38912 -1.11069e-20)
(0.0609094 1.39004 4.73968e-20)
(0.054913 1.36731 7.05662e-21)
(0.0455736 1.39118 4.14189e-21)
(0.107296 2.36028 -1.48992e-19)
(0.0960755 2.40915 0)
(0.169029 2.03405 1.08576e-19)
(0.114817 1.70278 3.97706e-20)
(0.234552 2.03183 -8.95964e-20)
(0.199427 2.42263 0)
(0.262096 2.37254 -6.05358e-19)
(0.302202 2.37025 4.27639e-19)
(0.228503 1.99146 -2.49673e-19)
(0.154777 2.15035 1.69238e-19)
(0.141534 2.25704 0)
(0.0180729 1.87788 9.68059e-21)
(0.000649365 2.38465 -2.88246e-20)
(0.00587742 2.14219 0)
(0.0113698 2.44883 -1.36711e-20)
(0.0290868 2.29147 6.97264e-21)
(0.0172139 1.42842 -7.99231e-21)
(0.013827 1.41013 1.33887e-19)
(0.0130466 1.41796 -4.4205e-20)
(0.0224841 1.42366 -3.72397e-20)
(0.0265313 1.45246 0)
(0.00871094 1.40076 0)
(-0.000167492 1.30507 -5.57418e-20)
(0.0040838 1.39334 1.59915e-20)
(0.00917035 1.3922 0)
(0.00814372 1.29735 -4.23536e-20)
(0.0173338 1.21242 8.54106e-20)
(1.04084 0.0121611 0)
(1.0471 0.0084312 -6.77624e-20)
(1.03891 0.0226991 -4.88809e-19)
(1.04865 0.0213614 0)
(1.05246 0.0211584 0)
(1.03653 0.0124021 -6.79672e-21)
(1.03118 0.0122729 7.85872e-19)
(1.03173 0.0173145 9.52425e-19)
(1.02567 0.0212651 0)
(1.02259 0.0217345 0)
(1.03534 0.0262606 4.87607e-19)
(1.02604 0.0280515 0)
(1.0239 0.0278942 0)
(-0.0178674 2.02243 0)
(-0.000460748 1.65949 -4.45625e-21)
(-0.0046433 1.76428 -3.10083e-20)
(-0.00311599 1.40004 0)
(-0.00722546 1.56396 -2.15524e-20)
(-0.0105643 1.47631 1.31783e-20)
(-0.00809957 1.41571 0)
(0.388231 1.63839 0)
(0.375151 1.30887 -7.35559e-20)
(0.300556 1.33988 0)
(0.426933 1.30772 8.85667e-21)
(0.47783 1.472 0)
(0.45815 1.4164 2.43706e-20)
(1.03619 2.67251 -1.54056e-20)
(0.968453 2.40091 -9.16027e-19)
(0.921832 2.18994 1.02621e-18)
(0.852131 2.36989 2.42365e-19)
(0.84751 2.48165 0)
(0.917197 2.47774 0)
(0.931524 2.36598 0)
(0.910455 2.35557 -9.46395e-19)
(0.686172 2.44493 -3.95278e-19)
(0.799449 2.43434 -9.79387e-20)
(0.809712 2.40846 7.43777e-20)
(0.695343 2.38843 0)
(0.800622 2.38373 0)
(0.758682 2.39734 -3.68984e-19)
(0.767017 2.47139 0)
(0.635492 1.09425 0)
(0.47982 0.894471 -5.17928e-19)
(0.57119 0.941189 -3.27433e-20)
(0.518544 1.02944 0)
(0.519057 0.970935 7.75067e-19)
(0.804859 0.88687 -1.29272e-19)
(0.812634 1.02252 0)
(0.788027 0.989122 1.84182e-19)
(0.672648 1.03437 0)
(0.673684 0.935257 0)
(1.16279 2.74939 -2.31057e-19)
(1.14021 2.81276 -9.83912e-20)
(0.927961 2.32573 1.02746e-19)
(0.895806 2.30541 -8.39715e-20)
(1.1285 2.72236 0)
(1.08243 2.69172 1.01013e-19)
(1.08823 2.47571 -3.14209e-19)
(0.982846 2.22927 -3.02525e-20)
(0.490913 1.32561 0)
(0.507117 1.05721 -1.24413e-19)
(0.578931 1.16758 0)
(0.850031 0.251205 0)
(0.756568 0.200725 0)
(0.662565 0.155235 0)
(0.842548 0.252232 -6.31757e-19)
(0.72627 0.245972 3.73976e-19)
(0.921777 0.0913491 -4.11818e-19)
(0.924641 0.133335 0)
(0.912759 0.1422 1.77929e-19)
(0.84881 0.118561 7.11394e-19)
(0.812994 0.0795347 -4.45844e-19)
(1.15385 3.34599 -7.14907e-19)
(1.20319 3.26556 0)
(1.1513 3.37518 -1.48499e-18)
(0.639699 3.53696 1.25919e-18)
(0.860447 3.10614 6.94618e-20)
(0.523899 0.789236 6.07459e-19)
(0.422236 0.786813 0)
(0.301574 0.358855 -1.47909e-19)
(0.479871 0.646172 8.54996e-19)
(0.570754 0.338814 -1.91819e-19)
(0.519209 0.4597 2.28781e-19)
(0.677336 0.513013 4.8484e-19)
(0.720996 0.55511 0)
(0.670117 0.569658 0)
(0.637636 0.524214 0)
(1.01221 0.618525 8.69098e-20)
(0.926159 0.559866 -5.0931e-19)
(0.951994 0.591022 3.83073e-19)
(0.981073 0.53123 -3.9478e-19)
(1.08969 0.498264 0)
(1.0983 0.589837 -9.57235e-20)
(0.857884 0.417951 -8.27524e-19)
(0.855441 0.40574 -1.0268e-18)
(0.788135 0.400337 6.28626e-19)
(0.797095 0.388874 -6.39261e-19)
(0.844031 0.34431 -5.19013e-19)
(0.790703 0.340784 6.34466e-19)
(1.02674 0.00620518 -4.9387e-19)
(1.02645 0.00642286 1.00441e-18)
(1.02953 0.000313588 6.27753e-19)
(1.03375 0.00122369 -7.56097e-19)
(1.03391 0.00936269 0)
(1.03018 0.0100515 -1.23053e-18)
(0.0637941 1.63837 1.86017e-20)
(0.0521521 1.59053 0)
(0.0912969 1.68788 1.2389e-19)
(0.0985371 1.66898 -1.09622e-19)
(0.0918935 1.5497 2.55676e-20)
(0.0910231 1.55148 0)
(0.0124523 1.69333 0)
(-0.00421359 1.50806 9.43023e-21)
(-0.00247996 1.45402 -8.48105e-21)
(-0.00838792 1.56107 5.34841e-21)
(0.00244522 1.88583 1.3726e-20)
(-0.00985082 1.93904 -2.97704e-21)
(0.496621 1.35406 -2.7827e-19)
(0.4903 1.35385 3.05864e-19)
(0.454561 1.30318 -3.24102e-20)
(0.436801 1.28189 7.82038e-21)
(0.642326 1.31013 0)
(0.55696 1.40064 1.05248e-19)
(0.573085 1.40753 -1.02465e-19)
(0.468638 1.295 3.16299e-20)
(0.523952 1.24257 0)
(0.575371 1.20482 0)
(0.653187 2.40466 5.80645e-19)
(0.668877 2.44661 1.25895e-18)
(0.713238 2.45741 -8.67536e-19)
(0.609314 2.43137 -2.01767e-19)
(0.559686 2.52107 2.8378e-19)
(0.509001 2.49609 -7.56715e-19)
(0.97803 2.37261 -5.7437e-19)
(1.01183 2.38464 0)
(0.925663 2.16803 -6.58927e-19)
(1.05355 2.67073 0)
(1.05586 2.6573 0)
(0.595251 2.25297 -1.33156e-19)
(1.03506 3.15158 1.23542e-19)
(0.906191 3.02214 -2.59083e-20)
(0.259855 0.832057 0)
(0.284134 0.672521 -3.1782e-19)
(0.456049 0.633568 -3.20622e-19)
(0.37545 1.99664 0)
(0.460324 2.77739 -4.83541e-20)
(0.413282 2.53972 0)
(0.723076 0.668018 -8.34316e-19)
(0.807718 0.68914 1.11313e-18)
(0.827054 0.629521 -1.09963e-18)
(0.699622 0.631923 -1.0666e-19)
(0.754357 0.591302 -4.36348e-19)
(0.999422 2.74959 -9.39631e-20)
(1.04115 2.81207 -1.68835e-19)
(0.629418 2.11395 7.10996e-19)
(0.581093 1.683 -5.06123e-19)
(0.692017 1.88453 -4.11249e-19)
(0.985696 2.43373 -1.12924e-19)
(0.993146 2.4267 2.99402e-19)
(0.646444 1.81649 2.85795e-20)
(0.438291 1.30434 1.45764e-19)
)
;

boundaryField
{
    wall-4
    {
        type            noSlip;
    }
    velocity-inlet-5
    {
        type            fixedValue;
        value           uniform (1 0 0);
    }
    velocity-inlet-6
    {
        type            fixedValue;
        value           uniform (0 3 0);
    }
    pressure-outlet-7
    {
        type            zeroGradient;
    }
    wall-8
    {
        type            noSlip;
    }
    frontAndBackPlanes
    {
        type            empty;
    }
}


// ************************************************************************* //
