/*--------------------------------*- C++ -*----------------------------------*\
| =========                 |                                                 |
| \\      /  F ield         | OpenFOAM: The Open Source CFD Toolbox           |
|  \\    /   O peration     | Version:  2206                                  |
|   \\  /    A nd           | Website:  www.openfoam.com                      |
|    \\/     M anipulation  |                                                 |
\*---------------------------------------------------------------------------*/
FoamFile
{
    version     2.0;
    format      ascii;
    arch        "LSB;label=32;scalar=64";
    class       volScalarField;
    location    "90";
    object      p;
}
// * * * * * * * * * * * * * * * * * * * * * * * * * * * * * * * * * * * * * //

dimensions      [0 2 -2 0 0 0 0];

internalField   nonuniform List<scalar> 
918
(
0.560077
1.1691
0.000467298
0.559548
-0.0126945
1.13606
-0.512925
0.652257
0.540288
-0.104961
-0.055906
0.542247
0.996896
0.762369
-1.1235
-0.0139783
0.65363
-0.381472
0.539424
-0.0753754
0.673697
0.546818
0.549841
0.540418
0.59944
0.733545
0.878102
0.0321802
0.0129885
0.00768591
-0.0121314
-0.0389587
-0.033801
1.01972
1.07079
1.09349
0.507992
0.33598
-0.378302
-0.452625
-0.438154
-0.537723
0.654594
0.656283
-0.216263
0.65379
0.651362
0.527286
0.539659
0.540574
0.541579
0.540571
0.541948
0.403622
-0.106075
-0.137483
-0.0857394
-0.0789034
0.0492586
-0.0545436
-0.0556852
-0.0553957
-0.0569002
0.457028
0.536736
0.533347
0.546476
0.555737
1.10865
1.0806
1.10673
1.02037
1.03684
0.974894
0.947463
0.783005
0.804954
0.747352
0.732631
-1.55106
-2.49484
-0.537847
-0.289613
-0.0108459
-0.012282
-0.00699278
0.651004
0.652239
0.653939
0.655532
1.07936
-0.378406
-0.481554
0.539569
0.538381
0.546683
0.547385
0.543407
0.542496
-0.065736
-0.0628209
-0.0624712
-0.0701706
-0.0674421
0.644736
0.651829
0.540944
0.537944
0.563474
0.584157
0.573867
0.279502
0.61021
0.626328
0.570013
0.727823
0.721253
0.73046
0.851878
0.815287
0.914977
0.938295
0.0193009
-0.000444218
-0.0182846
-0.0213587
-0.0205688
0.503818
0.496349
0.524269
0.511433
0.513944
0.253574
0.121278
0.420333
0.444742
-0.298004
-0.366648
-0.430617
-0.460377
-0.568096
0.616013
0.657063
0.654319
-0.22543
-0.153441
-0.288544
-0.0800108
-0.143466
0.517529
0.524559
0.519548
0.535127
0.529588
0.531554
0.543938
0.541006
0.542567
0.465631
0.588926
0.329933
0.294156
-0.242757
-0.152831
-0.241279
-0.0686346
-0.065851
0.0637748
0.0897543
0.0356654
0.0236123
-0.0620656
-0.0574591
-0.0594394
-0.0568797
-0.05872
0.44973
0.43844
0.469753
0.477333
0.523483
0.52489
0.529274
0.527348
0.898391
0.920841
0.928193
0.901871
-3.47634
-6.24308
0.0318992
0.167122
-0.0071092
-0.01013
0.00177491
-0.00637387
-0.000587924
-0.00231154
-0.0123731
-0.0137938
-0.00855329
-0.00741929
0.646153
0.646719
1.00259
1.01087
0.977128
0.930371
0.527859
0.529891
0.535361
0.531262
-0.0594167
-0.0611021
-0.0597983
0.650931
0.648547
0.650065
0.240729
0.150335
0.330856
0.360214
0.639878
0.629272
0.63826
0.630918
0.666182
0.945724
0.963807
0.962103
0.970276
1.01429
1.03067
0.996045
0.483193
0.493213
0.488141
0.527076
0.525001
0.525837
0.522297
0.523284
0.521439
-0.0282938
-0.405852
0.491555
0.507455
0.494172
0.49547
0.69632
0.775213
0.655209
0.656045
0.655547
-0.00986781
-0.0684632
0.249115
0.214609
0.388897
0.425532
0.40434
0.869636
0.829583
0.879837
0.853263
0.814419
0.841113
-0.357588
-1.84823
-0.972152
0.513342
0.329769
0.416281
0.0051283
-0.0118499
-0.00708366
1.00352
1.07449
0.64464
0.820199
0.822095
0.699805
0.729912
0.789159
0.714618
0.749964
0.783927
0.762735
0.57146
0.504701
0.521718
0.84405
0.8995
0.119575
0.0568147
0.0131035
0.109095
0.16707
0.140746
1.03415
0.952625
1.02223
0.537707
0.538433
-0.00890286
-0.024992
0.542701
0.542759
-0.0143449
-0.00408174
0.398897
-0.830907
0.096835
0.53132
0.521136
0.538306
-0.0903154
0.354978
-0.0552785
0.0453831
-0.0131989
0.532629
0.468202
0.427176
-0.00369776
-0.023656
-0.0650931
-0.211433
0.535376
0.533681
0.537773
0.538708
0.539393
-0.0228611
-0.0190701
-0.0125188
-0.0589778
-0.0505671
-0.0661871
0.50216
0.521253
-0.170117
0.537925
0.540064
0.539881
0.533171
0.538787
0.537049
-0.014459
-0.0185023
-0.0210705
0.220245
0.35367
0.6344
0.718521
0.607688
0.386256
0.153498
0.540262
0.601998
0.509572
0.660812
0.652561
0.649381
0.162237
0.0112783
0.171808
0.113683
0.529175
0.527917
0.519386
0.516339
0.533173
0.531283
0.535851
0.532882
0.535836
0.537211
-0.0471034
-0.0731521
-0.0828061
-0.149453
0.309778
0.570288
0.254976
0.284093
0.140368
-0.0505846
-0.0522498
-0.0527292
-0.0590441
-0.00110351
-0.0289995
0.0396987
0.0391972
0.00966744
-0.0159121
-0.0120159
-0.0238318
-0.0166405
0.525915
0.525827
0.530691
0.539249
0.477894
0.481674
0.446354
0.467247
0.452379
0.390746
0.426451
0.401518
-0.00899611
-0.00192811
-0.0055174
-0.0222267
-0.0186937
-0.0399025
-0.037147
-0.03156
-0.028246
-0.0353099
-0.0581795
-0.0625534
-0.169048
-0.285314
0.989274
0.908207
0.142051
0.524514
0.53098
0.527736
0.532681
0.535811
0.536604
0.534304
0.530847
0.521585
0.523292
0.519799
0.520729
-0.100487
-0.243253
-0.0713646
-0.147491
0.148992
0.630958
0.365565
0.300344
0.295893
0.525734
0.902427
0.683565
0.649968
0.636858
-0.346117
0.0378458
-0.284489
0.326345
0.159219
0.637265
0.684322
0.704081
0.653666
0.607754
-0.0947841
0.558751
-0.0758748
-0.022743
0.179995
0.0538208
0.638604
0.641368
0.647217
0.641452
0.650341
0.643343
0.623328
0.625458
0.641173
0.648082
0.481153
0.250906
0.201042
0.162551
0.645912
0.515092
0.563762
0.49054
0.524411
0.527011
0.525686
0.506997
0.514592
0.510108
0.51669
0.520232
0.528878
0.529363
0.524606
0.526737
-0.0540029
-0.059881
-0.0240067
-0.133741
-0.1264
-0.189134
-0.0580044
0.0776161
0.0389395
0.239171
0.342315
0.0543359
-0.0550199
-0.0279403
0.0159108
0.182396
0.21118
0.0745699
0.160898
0.153886
0.134188
0.237197
0.239869
-0.0320049
-0.0326611
-0.0368473
-0.0405607
0.016697
0.0885911
0.0976956
-0.0127576
-0.0164612
-0.0505109
-0.0535682
-0.0226458
-0.0275064
-0.0232135
0.00466202
-0.0566232
-0.024438
-0.0107616
-0.012952
-0.0115976
-0.016667
0.520595
0.522379
0.522586
0.531614
0.54374
0.558442
0.524007
0.500167
0.490922
0.493928
0.466829
0.477167
0.472989
0.486644
0.50794
0.51646
0.514776
0.517591
0.49994
0.501639
0.488143
0.491831
0.466857
0.447406
0.435329
-0.0470718
-0.0091725
-0.0174219
-0.0421199
-0.0127824
-0.0243537
-0.0160496
0.00325676
-0.0138679
-0.0144431
-0.0244315
-0.0327183
-0.0326335
-0.0707229
0.0168021
-0.183477
-0.218109
-0.291969
0.891878
1.01604
0.81013
0.583166
0.604686
0.847914
0.931554
0.542843
0.735837
0.758575
0.590424
0.85806
0.529369
0.528962
0.526561
0.526036
0.527258
-0.0039183
0.103629
0.0991249
0.16471
0.280751
0.391314
0.325773
0.199249
0.328703
0.331061
0.623165
0.635019
0.591647
0.615859
0.616842
0.427413
0.503082
0.554769
0.51581
0.568412
0.590251
0.543876
0.577405
0.526102
0.481227
0.477325
0.427108
0.446572
0.422039
0.405252
0.519987
0.496579
0.507518
0.497641
0.5198
0.545927
0.543032
0.565743
0.580776
0.500421
0.455528
0.464771
0.494995
0.456636
0.472112
0.487919
0.23873
0.141602
0.224272
-0.0595919
0.00767897
-0.00351104
-0.0528873
0.00029687
0.284009
-0.404679
-0.382057
-1.00597
0.509532
0.944024
0.557264
0.537708
0.649996
0.638998
0.643708
0.659784
0.652791
0.634312
0.642068
0.647007
0.590994
0.612239
0.626302
0.623651
0.526331
0.380986
0.381165
0.328206
0.198251
0.238761
0.434011
0.358596
0.283765
0.283814
0.458545
0.344549
0.415438
0.447722
0.378651
0.333266
0.537102
0.603113
0.596151
0.570148
0.478977
0.490272
0.515503
0.549174
0.572362
0.607055
0.516098
0.52206
0.523288
0.520759
0.518022
0.521121
0.521374
0.523957
0.524576
0.527595
0.526663
-0.0511447
-0.0379448
-0.0485235
-0.0598441
-0.0161375
-0.0186367
0.0247407
0.0121904
-0.0152012
-0.0107168
-0.0315354
-0.0356701
-0.0327988
-0.0254951
0.104343
0.116761
0.101172
0.0616813
0.25345
0.382488
0.457051
0.331894
0.226873
0.250716
0.268857
-0.0127712
0.0117081
-0.000755784
0.0390377
0.0317309
-0.0425959
-0.0473322
-0.0447103
-0.0342051
-0.0260955
-0.0477641
-0.0571058
-0.045937
-0.049733
-0.0528837
-0.0594333
0.502451
0.495941
0.497534
0.491496
0.490204
0.504398
0.508698
0.510704
0.516238
0.518482
0.508544
0.513983
0.517923
-0.0179887
-0.0415572
-0.0441133
-0.039439
-0.0394418
-0.0373659
-0.039821
0.127661
0.0594144
0.062634
0.0149756
-0.118648
-0.0604601
0.495771
0.493789
0.48183
0.724503
0.573721
0.494883
0.591751
0.697567
0.281045
0.475964
0.31217
0.890609
0.788092
0.934117
0.54498
0.251608
0.418746
0.457351
0.273775
0.351816
0.325308
0.21532
0.245557
0.286205
0.383384
0.270545
0.248818
0.00538571
0.195972
0.305751
0.287876
0.410732
0.470336
0.273351
0.192345
0.147203
0.607568
0.626857
0.640151
0.612501
0.635236
0.584408
0.576274
0.591731
0.599978
0.593504
-0.735064
-0.441207
-1.38941
-0.717572
-0.259544
0.539814
0.516291
0.773712
0.643585
0.668613
0.653313
0.617071
0.588856
0.614475
0.634189
0.339592
0.450499
0.425283
0.43205
0.334888
0.264376
0.564214
0.561983
0.595371
0.619515
0.59055
0.62132
0.513902
0.513621
0.513086
0.509327
0.50759
0.509931
0.0595938
0.0268678
0.068545
0.0509866
0.028753
0.0168374
-0.0199334
-0.030415
-0.0365281
-0.0350656
-0.0201364
-0.0164326
0.177693
0.111094
0.0336467
0.0614653
0.00157877
-0.0672317
-0.0870232
0.0199713
0.116931
0.106913
0.408991
0.657124
0.477502
0.64469
0.488004
0.543627
0.470013
0.460926
0.485057
0.383284
0.463867
0.262816
-0.246706
-0.156743
0.799301
0.80922
0.583202
0.412785
0.178635
0.351459
0.540654
0.469337
0.504088
0.572425
0.558766
0.0397977
0.0938831
0.391358
0.618122
0.247318
0.237888
0.231395
0.419052
0.335497
)
;

boundaryField
{
    wall-4
    {
        type            zeroGradient;
    }
    velocity-inlet-5
    {
        type            zeroGradient;
    }
    velocity-inlet-6
    {
        type            zeroGradient;
    }
    pressure-outlet-7
    {
        type            fixedValue;
        value           uniform 0;
    }
    wall-8
    {
        type            zeroGradient;
    }
    frontAndBackPlanes
    {
        type            empty;
    }
}


// ************************************************************************* //
