/*--------------------------------*- C++ -*----------------------------------*\
| =========                 |                                                 |
| \\      /  F ield         | OpenFOAM: The Open Source CFD Toolbox           |
|  \\    /   O peration     | Version:  2206                                  |
|   \\  /    A nd           | Website:  www.openfoam.com                      |
|    \\/     M anipulation  |                                                 |
\*---------------------------------------------------------------------------*/
FoamFile
{
    version     2.0;
    format      ascii;
    arch        "LSB;label=32;scalar=64";
    class       surfaceScalarField;
    location    "90";
    object      phi;
}
// * * * * * * * * * * * * * * * * * * * * * * * * * * * * * * * * * * * * * //

dimensions      [0 3 -1 0 0 0 0];

oriented        oriented;

internalField   nonuniform List<scalar> 
1300
(
3.75095
5.62643
-3.27787
3.75095
-7.75126
5.62643
-4.4122
4.4122
-0.340168
0.340168
1.87638
1.87457
-2.69464
2.69464
-2.02394
2.02394
-2.5215
2.5215
-5.24638
5.24638
-5.06854
5.06854
4.64872
-4.64872
-6.31727
6.31727
-0.936336
0.936336
-3.69423
3.69423
3.16958
-3.16958
-1.9229
1.9229
0.0996172
-0.0996172
-0.553467
4.30442
3.19749
3.19749
-2.00658
2.00658
-4.86979
4.86979
6.2179
-6.2179
5.25449
-5.25449
-1.97662
-2.49162
1.80007
-11.462
-5.95119
-5.95119
-8.44038
8.44038
-2.81395
2.81248
2.94647
-2.94647
-1.76393
1.76393
-4.37642
-0.0357823
-4.37642
4.38043
0.0317662
4.38043
-0.451769
0.111601
-0.451769
4.01833
-4.01833
0.23337
0.106798
0.23337
3.06541
-3.06541
-1.87712
3.75351
1.87383
-1.8719
6.17632
-1.87905
3.75362
-6.01253
6.01253
-2.94066
0.246026
-2.94066
2.48126
0.213377
2.48126
-6.85135
6.85135
-2.0825
0.0585682
-2.0825
1.97095
0.052984
1.97095
2.88224
-2.88224
-2.62775
0.106255
-2.62775
2.39257
0.128924
2.39257
0.353509
5.27292
-5.97994
8.79242
-5.27292
0.0265399
5.20831
0.0380706
5.20831
-5.10594
0.0373991
-5.10594
5.01406
0.0544806
5.01406
4.73136
-0.0826353
4.73136
-4.76863
0.119909
-4.76863
-3.36738
-4.05904
-6.46819
0.150918
-6.46819
-1.02562
0.0892869
-1.02562
0.824017
0.112319
0.824017
-3.68829
3.68829
-4.11732
0.423086
-4.11732
3.12395
0.0456237
3.12395
1.86849
1.88247
5.61944
-5.61944
2.44986
-1.88563
-0.0372734
-1.88563
-2.0063
-3.24819
2.0063
-0.0833999
-0.139635
0.239252
-0.139635
3.15945
0.0380314
3.15945
2.23539
0.157182
-2.23539
0.228806
3.28131
-3.28131
1.33449
0.672089
1.33449
-5.5644
5.5644
4.95693
0.0571332
-4.95693
0.087136
6.15609
0.0618086
6.15609
-6.19955
-0.0183432
-6.19955
2.52472
-5.01634
-2.65669
6.13434
0.182935
-6.13434
0.18315
2.91846
0.0280059
2.91846
-2.91781
2.91781
-2.98488
0.0384077
-2.98488
-2.16254
0.398617
-2.16254
1.46595
0.297973
1.46595
-4.27946
-0.0969553
-4.27946
-4.26888
0.151563
4.26888
0.11155
1.13023
-1.13023
-0.585646
0.133877
-0.585646
-4.14416
-0.135299
4.14416
-0.125831
-3.90511
-0.113217
-3.90511
-3.02464
0.0397651
3.02464
0.0407661
3.11291
0.0465406
-3.11291
0.0475077
-1.87081
3.75328
-1.88014
3.75397
-5.63337
-0.379165
-5.63337
6.32345
-0.310919
6.32345
3.33488
0.359357
-3.33488
0.394212
2.30972
0.171543
2.30972
-6.81211
-0.0392383
-6.81211
6.83789
0.0134649
6.83789
2.17872
0.130999
-2.17872
0.0962148
1.92575
0.0452
1.92575
2.90298
-0.0207487
2.90298
-2.87607
-0.00617094
-2.87607
2.79016
-2.79016
2.71521
0.0749499
-2.71521
0.0874573
-11.1329
11.1146
-0.035066
-11.0979
5.17324
5.17324
4.15579
0.575569
4.15579
-4.98843
0.219794
-4.98843
2.69403
-5.35071
3.10802
-6.4754
4.66081
-16.1228
4.28339
-8.34243
6.7071
-6.7071
6.59669
0.110412
-6.59669
0.128494
-1.144
0.118381
-1.144
-3.0879
-0.600389
-3.0879
4.32853
-0.640245
4.32853
-3.02787
3.02787
-3.07735
0.0494807
3.07735
0.0466022
1.89071
0.0350398
-1.89071
0.00508437
0.165114
0.0682561
-0.165114
0.0254797
3.49703
-0.215714
3.49703
-3.08163
-0.199687
-3.08163
-1.24412
0.100119
1.24412
0.0903693
-5.81328
0.24888
-5.81328
-11.1909
0.0930074
-11.1528
-6.10655
-6.10655
2.33383
11.1263
-2.89388
0.01781
2.89388
0.0245863
2.97435
0.0535182
-2.97435
0.0565454
-2.85697
0.0668112
2.85697
0.0608375
-2.53712
0.374576
-2.53712
-1.06736
1.06736
-1.23054
0.163181
1.23054
0.235409
1.40475
-0.27452
1.40475
0.707291
0.116726
-0.707291
0.121646
-3.80176
-0.103353
-3.80176
6.55917
-0.235725
6.55917
-2.96562
-0.116009
2.96562
-0.0626337
-0.0333626
11.1479
-5.13988
0.0339414
5.13988
-11.2098
11.2437
-3.20694
0.669817
3.20694
0.948851
5.28357
0.280836
-5.28357
0.295142
6.78975
0.0481313
-6.78975
0.0826575
-2.59569
-0.49221
-2.59569
-5.05253
-0.58084
5.05253
-0.723993
-11.4739
-0.20445
11.6784
-11.4194
6.01773
0.138354
-6.01773
11.382
-1.02792
-0.102305
1.02792
0.0394428
1.73339
-0.328643
1.73339
3.69644
-0.199413
-3.69644
-0.10532
-6.71409
-0.0980243
6.71409
-0.154914
-2.15071
-0.444978
2.15071
-0.417322
-4.26714
4.30517
1.90919
-2.37478
-2.64157
-5.62296
1.85184
1.90144
4.3017
-10.1225
-6.00029
-9.93934
7.26071
-6.96557
-9.23167
9.14904
7.91595
-8.02917
-5.78465
5.83125
6.483
-6.44224
1.87885
1.87466
8.03933
-7.7933
-15.5667
15.1875
7.58055
-7.52198
15.7216
-15.7608
-17.8031
17.8513
-5.70727
5.81352
-6.74099
6.73482
-6.9774
6.91477
-2.83365
-3.64175
13.0814
-12.9305
8.64661
-8.68389
-8.64105
9.06413
3.38261
0.92256
3.42915
-1.88213
3.76098
-1.87149
3.78068
2.75479
-5.58844
2.59592
-5.23749
4.40015
4.24646
-4.31675
-1.30621
-5.92502
5.95303
-5.81417
5.875
9.1674
-9.20318
-1.88518
3.75984
-1.86879
3.77023
-3.42499
-2.35966
3.37937
0.922337
8.04905
5.03233
-8.23199
-1.70735
-8.05128
7.85187
-8.23599
8.03631
-0.432323
5.81912
-5.38679
4.43747
-1.56578
7.38489
5.69493
5.91473
5.8662
-5.58536
1.09937
-6.48616
-6.39902
-2.19769
2.33156
2.08792
-1.98112
6.16581
1.75014
6.03998
-5.77309
-2.25608
-5.87645
3.82036
2.01089
3.86984
4.07857
2.40443
4.11834
3.03039
-3.03602
0.00563268
-3.05673
6.08712
0.723817
-5.41639
-4.49405
4.98441
3.05492
5.19779
-5.5674
-2.22591
-5.17318
-9.51729
-6.04942
-10.0981
10.0596
5.12799
9.74864
-11.9278
11.7729
4.81267
2.76788
4.86566
-4.96043
-2.56156
-4.86421
11.6276
-2.64587
-8.98171
-10.2929
-7.51018
10.2795
5.44208
10.9356
6.91567
11.0182
4.41566
7.21192
-9.85774
2.34756
-3.86815
-1.83912
-3.78069
3.67594
2.13759
3.80486
-4.21771
-2.52328
-4.1999
-4.29601
-2.6814
4.31675
2.41806
-4.41859
-3.8174
4.5346
2.38017
4.03917
-10.0395
4.30326
-7.94501
-9.17325
-3.75721
-9.04476
3.55767
2.61144
-6.16911
-2.03077
8.57447
-4.32801
7.26826
-5.21611
-3.46777
-5.21103
-6.90331
-1.73774
-6.75175
-8.85826
8.36605
-9.15411
8.51386
12.4748
-5.6277
-6.84707
-3.96848
-2.47376
3.92097
-0.491826
-3.71045
3.71609
0.0505232
3.8312
4.75376
4.26194
-3.88502
-1.92915
-3.82847
3.82497
2.05003
3.89178
6.85846
2.30894
6.89023
-6.63465
-2.56854
-6.7316
9.01766
-8.61905
2.83112
-2.73101
5.40385
2.63245
-5.18814
-2.86314
6.20724
-3.21975
-2.98749
-12.2051
10.5219
1.68316
-4.82018
-0.382715
-0.482332
-5.48415
-3.74752
5.36424
0.550484
11.0724
7.32489
-5.51275
5.76163
6.16562
6.22276
-0.176269
5.79184
-5.12203
5.25935
-2.62253
-2.63682
5.49264
-5.62793
-1.23897
-5.54704
4.30808
0.412043
1.39257
-1.15331
-1.74515
-0.452532
-1.62351
1.17728
0.910636
1.24554
0.96368
1.36788
-2.94025
0.501639
2.43861
-1.97657
-1.47948
-3.86242
-1.13745
4.99988
5.74879
2.10308
-5.64347
-0.232977
2.50591
-2.39359
-0.815635
-3.04679
2.23332
-3.04896
-3.66284
-2.10185
5.76469
-3.3698
-0.458668
3.31628
0.553559
-3.82731
-2.09771
3.7889
0.329434
-3.12844
6.19097
-3.06253
-5.05759
2.52742
3.55969
4.53831
-4.78958
2.44785
2.34173
-1.22988
4.2509
0.94689
4.42244
-6.96153
4.73562
5.81895
3.24518
-6.17831
1.00513
-5.9564
8.55155
-7.38015
-1.1714
4.16873
4.38282
7.04066
5.43411
-5.65855
12.6992
-1.20965
-6.17051
7.16605
-3.92087
4.85839
-8.77926
-10.2925
4.12199
-9.10741
10.8818
-1.77438
-3.61543
-8.31238
12.7228
-1.20054
-11.5223
8.54811
-4.29354
-4.41484
8.70838
-6.93941
6.97639
-1.99208
-4.98431
-10.0783
-5.68253
10.1763
1.59661
-9.94394
12.2915
-2.73202
4.12187
0.74379
4.16707
3.30631
-5.49215
2.18584
3.6331
-5.62518
2.07844
-7.57059
-6.71593
12.0481
-5.33212
-10.4731
-9.49372
-0.979427
2.53571
9.75578
-9.45138
7.40982
2.04155
3.30069
0.59109
-3.37564
-0.405051
0.233613
4.51296
-4.74657
4.03847
4.19566
3.26262
1.25033
3.84573
2.1073
-3.87032
-0.329578
-4.16432
1.48292
-1.74625
-3.69526
5.17818
-4.06761
0.372342
-2.74409
-3.49761
6.24169
-4.58321
3.03472
3.15625
5.08475
-4.91382
1.41621
-2.39278
-2.52104
2.6514
-4.39765
1.99516
3.18302
4.37533
0.55793
5.87336
6.1747
-8.4848
0.539785
11.207
-9.49968
2.45948
8.55876
-9.8693
0.37558
-8.66918
1.00265
-5.33065
-5.16646
5.20941
-6.94714
-3.56985
6.23002
0.660207
-6.34157
-0.410178
-6.02104
-2.83722
-6.46602
-3.03627
-6.11784
-8.69482
-1.64782
-7.047
6.71823
-6.66675
-3.43139
7.39074
1.12312
-7.39474
7.29244
-7.47283
7.14418
0.0954857
3.6206
4.35742
1.88367
-2.39072
4.27438
-5.13061
7.43955
-8.74243
3.61182
4.21979
-6.78833
-4.52264
5.00881
4.00885
5.30679
8.86094
-10.3193
1.45836
-10.6204
11.9532
-1.33272
-16.3693
5.74882
-7.50832
2.43261
0.398512
2.55099
0.540997
2.49879
-3.03978
-2.19001
-2.09964
-2.44332
-3.46456
5.90787
1.08221
-3.53252
2.45031
-3.56775
4.64996
-0.221464
-3.31105
5.26526
-2.76647
5.66377
-3.78921
1.87456
3.44077
5.75437
-2.3136
4.39576
-1.7633
1.93194
-4.24554
-1.53262
-2.95457
5.09216
-3.28713
3.65947
-0.345588
4.00506
-4.04567
0.825923
-0.783049
3.41261
3.64141
4.31697
-3.06664
2.91606
-4.67937
-1.32948
-4.12144
-0.938419
-0.252192
-3.68883
3.94103
5.96042
-6.21261
-5.22481
9.50828
-4.28347
7.67744
-5.37195
-2.30549
-4.24046
-4.37858
3.86589
1.92596
9.60339
0.207094
-5.57905
-4.91493
-3.96608
3.09651
2.16284
-1.69162
3.37478
2.17396
-0.781391
0.434358
0.811183
1.76785
-1.33349
0.316652
1.4512
-0.836662
1.68973
0.816177
-1.80646
0.18295
-1.35571
3.58903
1.0829
-1.99354
0.660045
0.978704
-3.60123
5.08407
-2.69538
-2.38869
6.06277
1.14431
-3.83969
4.40274
-3.99069
2.40656
-3.54402
-1.43313
-5.42382
-3.67367
-2.51388
4.96419
-3.39399
5.49707
1.30135
-5.26409
6.56544
-3.73177
1.62992
-3.03945
3.85562
-0.918193
-2.12125
2.90137
2.86331
-3.09181
0.0450174
-0.190433
2.40226
-2.59269
-0.646699
-2.62327
-4.57373
4.90317
-2.10508
4.55293
2.1693
-1.91734
6.47027
1.80863
-3.72597
-3.24896
-3.70763
-1.38424
3.15407
-0.568802
-4.29541
-5.55311
4.16441
0.258029
-7.07753
7.89494
-0.817403
-4.02261
-0.713008
4.88174
-6.09395
0.468774
-4.01551
3.87942
4.82631
5.08434
-11.3011
-0.221165
-6.17315
1.11898
-7.29213
5.5018
-3.52557
7.64757
-10.2968
6.86538
-9.17364
6.47617
-0.815958
6.23575
-4.04991
2.74596
-8.42849
-6.83188
5.56605
-2.79817
6.30984
-3.17819
9.48803
-5.91021
5.34471
4.14332
-1.02124
-4.18979
-5.35702
4.33579
-0.0123123
4.15475
4.98044
-2.87314
4.65086
2.27007
-4.66285
-2.12758
-6.4963
1.83345
-3.34005
-1.92141
3.75486
3.16334
3.75443
1.23382
-3.34938
7.20167
-8.18109
-1.86954
-3.29692
5.3505
-1.01472
3.44792
-6.74484
-1.88273
4.77438
-0.776633
-3.99775
0.853316
-4.42317
1.67694
-6.10011
5.2702
-5.68038
2.22094
-9.72926
-5.1738
-5.13436
-2.2567
-5.21613
-7.55061
5.29391
-1.80178
5.49065
-8.47842
7.70178
-3.47475
8.76866
-5.41678
-1.04923
5.8341
1.31008
10.0787
0.228534
-4.75117
-1.92786
3.82734
-1.89949
1.16865
-3.4603
0.367043
2.50151
3.56127
-6.80958
0.021255
-4.72992
-3.9099
7.91875
5.59839
11.5588
1.2395
9.09652
-1.17777
10.336
4.12901
4.36442
-2.97639
4.43475
0.964633
4.57645
-0.92751
2.80207
1.62348
1.71277
0.680818
2.30386
1.33756
3.12978
0.089995
-2.00964
4.61498
-8.58106
-0.964071
-8.00549
1.14355
5.70191
-4.55836
2.90655
-0.743704
1.00706
-0.146197
-1.14582
1.29202
-2.78302
-1.92722
-0.476017
-1.69373
2.35378
1.8953
-1.87776
-0.90526
0.349464
-4.02314
3.19455
-3.14954
-0.286225
6.27921
-2.81257
0.21988
-1.18265
-2.40339
-2.85592
2.67297
6.17639
0.293878
3.11386
5.19705
3.09933
0.226193
3.87912
-5.6535
-3.69146
-5.87467
-0.372869
4.50887
1.76373
7.99205
5.90705
4.89233
-1.85251
-10.0336
6.49844
-2.06368
5.16571
-1.16796
-4.93215
5.05909
2.38046
-5.7193
0.0389126
-4.89323
-6.95692
-0.509821
8.2116
-9.56892
8.51969
5.68247
1.36453
-4.39332
-0.741037
4.23014
0.134281
10.4703
-1.13069
-6.68962
7.82031
-4.57122
3.60715
0.727198
2.64758
2.01922
1.27551
-5.41411
-9.97247
-2.07546
-1.52577
-4.46415
0.535729
-2.43103
6.2103
-2.60315
3.90481
5.21716
6.22422
-2.12565
-4.08695
6.40912
-2.50431
3.71991
)
;

boundaryField
{
    wall-4
    {
        type            calculated;
        value           uniform 0;
    }
    velocity-inlet-5
    {
        type            calculated;
        value           uniform -3.75095;
    }
    velocity-inlet-6
    {
        type            calculated;
        value           uniform -5.62643;
    }
    pressure-outlet-7
    {
        type            calculated;
        value           nonuniform List<scalar> 8(3.27787 7.75126 4.46824 9.6619 7.42643 5.18141 5.80204 8.9442);
    }
    wall-8
    {
        type            calculated;
        value           uniform 0;
    }
    frontAndBackPlanes
    {
        type            empty;
        value           nonuniform List<scalar> 0();
    }
}


// ************************************************************************* //
