/*--------------------------------*- C++ -*----------------------------------*\
| =========                 |                                                 |
| \\      /  F ield         | OpenFOAM: The Open Source CFD Toolbox           |
|  \\    /   O peration     | Version:  2206                                  |
|   \\  /    A nd           | Website:  www.openfoam.com                      |
|    \\/     M anipulation  |                                                 |
\*---------------------------------------------------------------------------*/
FoamFile
{
    version     2.0;
    format      ascii;
    arch        "LSB;label=32;scalar=64";
    class       volVectorField;
    location    "90";
    object      U;
}
// * * * * * * * * * * * * * * * * * * * * * * * * * * * * * * * * * * * * * //

dimensions      [0 1 -1 0 0 0 0];

internalField   nonuniform List<vector> 
918
(
(0.98516 -0.000508492 0)
(0.00501646 2.96625 0)
(0.0082644 0.878942 0)
(0.979705 0.00214494 0)
(-0.0125736 2.06126 3.77993e-20)
(-0.00705083 2.9488 -2.43093e-18)
(0.823713 1.17014 4.50644e-19)
(0.101579 0.077042 -1.45103e-20)
(0.999909 -0.000275379 0)
(0.0661654 0.741023 0)
(0.0197243 0.48002 0)
(0.731815 0.00701598 0)
(0.0111344 2.93033 0)
(0.0029977 2.79506 0)
(-0.017922 3.14528 7.81809e-19)
(-0.0210637 1.91924 1.23435e-20)
(0.286874 0.0618606 1.02165e-18)
(0.189843 1.14678 3.16509e-19)
(0.962709 0.00501286 0)
(0.00668258 0.413383 0)
(-0.00438443 0.0145092 -6.67315e-19)
(1.00197 -0.00497406 0)
(1.00023 -0.00978296 0)
(0.975741 -0.0064383 0)
(0.598089 0.031091 0)
(0.0134596 2.64285 0)
(-0.0147517 2.90994 8.91765e-19)
(0.0146822 0.921876 0)
(-0.021234 1.18418 0)
(0.0170925 0.906306 0)
(-0.016083 2.58496 0)
(-0.00154512 2.11554 -3.01888e-20)
(-0.0114634 1.89832 0)
(-0.0205957 2.98761 -8.72645e-23)
(-0.0166801 3.00529 1.88911e-18)
(0.00210219 3.00017 0)
(0.871484 -0.00965965 0)
(0.400023 0.928383 1.82398e-19)
(0.810616 1.18353 -5.14852e-19)
(0.961729 1.03034 5.61717e-19)
(0.677942 1.2754 -1.05013e-19)
(0.677552 1.24927 6.01444e-19)
(0.129676 0.119955 1.42187e-20)
(0.1401 0.0597767 0)
(1.1681 0.567118 0)
(0.0942478 0.0871748 6.37262e-20)
(0.068528 0.0520289 -6.64748e-20)
(0.919932 -0.00745749 0)
(1.00027 0.000163025 0)
(0.999909 0.000340063 0)
(1.00363 -0.00775677 0)
(1.00096 -0.000916966 0)
(1.00017 3.85465e-05 0)
(0.07264 1.82624 -7.71478e-19)
(0.0329335 0.944847 0)
(0.0987899 0.820312 0)
(0.0153415 0.892275 0)
(0.0410615 0.659084 0)
(0.00725327 2.01627 0)
(0.002634 0.770256 0)
(0.0191493 0.503619 0)
(-0.00196367 0.759148 0)
(0.0145092 0.45784 0)
(0.842243 -0.0156603 0)
(0.842388 0.0272198 0)
(0.757775 0.00388982 0)
(0.800762 0.029455 0)
(0.700875 0.0191165 0)
(0.0146822 3.00041 9.00592e-19)
(0.0114915 3.00811 0)
(0.00610245 3.00274 0)
(0.0135537 2.99738 1.02106e-23)
(0.00795115 2.95847 -1.3385e-18)
(0.0144888 2.98197 0)
(0.0108785 2.9036 0)
(0.0245538 2.93048 2.03425e-24)
(0.00464369 2.8251 0)
(0.0307903 2.91646 0)
(-0.00514517 2.74653 0)
(0.303173 3.53574 0)
(-0.131414 3.61596 0)
(0.136601 3.23491 -7.27536e-19)
(-0.0140726 2.97474 0)
(-0.0286183 1.98749 0)
(-0.00719947 2.17023 -1.21743e-20)
(-0.0148916 1.92776 7.09644e-21)
(0.337284 0.137421 -3.54698e-19)
(0.31748 0.0371933 -3.44769e-19)
(0.291232 0.140005 -1.06248e-18)
(0.25104 0.0670771 -6.90238e-19)
(0.229959 0.986554 0)
(0.273399 1.29654 -3.68556e-19)
(0.368477 1.23251 6.15252e-19)
(0.98742 0.00858255 0)
(0.941842 0.00579867 0)
(1.0003 0.000581804 0)
(1.00286 0.0093105 0)
(1.00301 0.00847573 -2.7599e-18)
(0.991906 0.00969369 2.08417e-18)
(-0.0132701 0.748589 0)
(0.0117019 0.420964 0)
(-0.0563389 1.00805 0)
(-0.0333522 0.800179 0)
(0.000704176 0.41844 0)
(-0.0956293 0.0848543 2.07163e-19)
(0.0404596 0.0605015 0)
(0.993557 -0.00836828 0)
(0.954476 -0.00653438 0)
(0.743511 0.0300631 0)
(0.67801 0.0286144 0)
(0.66059 0.0262497 0)
(0.973065 -0.00704554 0)
(0.585473 0.0740361 0)
(0.458148 -0.00142553 1.54842e-18)
(-0.0370512 2.86213 6.51914e-19)
(0.0409984 2.9105 0)
(0.0535632 2.88615 0)
(-0.00434881 2.70131 0)
(-0.0133625 2.98502 8.43513e-19)
(-0.0178302 2.89483 0)
(-0.0154885 2.98804 -2.6175e-18)
(-0.0132417 2.92515 8.96582e-19)
(-0.0382768 1.35411 0)
(-0.00855214 1.38587 0)
(-0.00749714 2.13507 5.87777e-22)
(-0.00659194 2.09646 0)
(-0.0234262 1.90635 0)
(0.938718 -0.00734996 0)
(0.857688 -0.00997048 0)
(0.862582 0.00562033 0)
(0.949682 -0.00778279 0)
(0.88415 -0.00820163 0)
(0.510961 1.12095 -2.30133e-19)
(0.560253 1.172 0)
(0.364894 0.873248 3.38564e-20)
(0.308041 0.732152 0)
(0.924234 1.06614 -1.551e-19)
(1.0439 0.875815 3.17109e-19)
(0.361285 1.35927 0)
(0.529748 1.33092 0)
(0.550868 1.26951 0)
(0.1216 0.184315 -3.04143e-19)
(0.161254 0.115642 0)
(0.173411 0.1002 1.89955e-19)
(1.01449 0.930002 0)
(1.08888 0.783187 0)
(1.11431 0.724918 -2.53262e-19)
(1.14744 0.626653 0)
(1.19728 0.409359 5.79361e-20)
(0.957817 -0.00867921 0)
(0.962548 -0.0100189 0)
(0.901814 -0.00798918 0)
(0.984213 -0.00913919 0)
(0.974729 -0.00932083 0)
(0.937156 -0.00637524 0)
(1.00019 0.00234125 0)
(1.0009 0.00141823 0)
(0.999909 0.000856141 0)
(0.0355242 2.0715 4.27531e-19)
(0.118383 1.76934 0)
(0.0181752 2.18487 6.57027e-19)
(0.0458791 1.88047 -5.47266e-19)
(0.107157 1.15031 -2.59178e-19)
(0.0499645 1.02684 0)
(0.144231 0.98569 0)
(0.00882383 0.846023 0)
(0.0214219 0.593237 0)
(-0.000779152 2.24128 -7.81977e-22)
(0.0162212 2.01992 0)
(-0.00166455 2.24419 -2.58204e-20)
(0.00868526 2.02627 3.8242e-20)
(0.00549095 0.815865 0)
(0.00453237 0.79007 0)
(0.0164711 0.542583 0)
(-0.00596488 0.75006 0)
(0.00694311 0.440046 0)
(0.938936 0.00988751 0)
(0.851096 -0.0145999 0)
(0.927963 0.000511218 0)
(0.842949 -0.0128715 0)
(0.809364 0.00118073 0)
(0.899287 0.0208145 0)
(0.875294 0.0244346 0)
(0.783198 0.00121976 0)
(0.00560386 3.06484 -8.37412e-21)
(0.0166307 3.0576 0)
(0.0145961 2.96901 0)
(0.00868983 2.87626 0)
(0.91728 3.9456 0)
(1.2297 3.27952 9.21534e-19)
(0.0683867 3.0673 0)
(-0.0299283 2.90095 0)
(-0.0119313 1.40919 0)
(-0.0341236 1.70241 0)
(-0.020817 1.54064 0)
(-0.03159 2.54459 -9.39164e-21)
(-0.0164516 2.23961 0)
(-0.0220906 2.38532 0)
(-0.000761353 1.95463 8.52315e-22)
(-0.00366153 2.24102 -1.13397e-20)
(-0.00555669 2.20533 -7.39962e-21)
(-0.00867822 1.9394 0)
(0.387248 0.121018 5.42404e-19)
(0.367062 0.0231779 -5.32257e-19)
(0.258121 1.58458 0)
(0.278409 0.759778 -3.16374e-19)
(0.176743 1.67199 -1.04806e-18)
(0.225502 1.22177 1.05032e-18)
(0.901905 0.00619508 0)
(0.967321 0.0112202 0)
(0.974508 0.0108406 0)
(0.923248 0.00632297 0)
(-0.00938953 0.744988 0)
(-0.0104776 0.742683 0)
(0.00870816 0.423254 0)
(0.081281 0.0656934 5.87947e-19)
(0.0778287 0.03764 -6.89441e-19)
(0.0422176 0.0441725 0)
(1.10239 0.087277 2.72199e-20)
(1.08435 0.0400783 0)
(1.01542 0.0405007 0)
(0.908823 -0.00495207 0)
(0.439901 0.103617 0)
(0.499175 0.0871357 -2.47514e-18)
(0.410673 0.0169543 9.26048e-19)
(0.00850681 2.98058 7.03353e-19)
(-0.0329443 2.86466 4.57184e-20)
(0.00361277 3.05036 -1.77478e-20)
(0.0201845 3.04325 6.30694e-19)
(-0.0149636 2.99658 2.94622e-20)
(-0.012952 2.94945 -1.18506e-22)
(-0.0172803 3.01191 -5.45597e-19)
(0.0149412 3.02359 3.95682e-19)
(0.00746131 3.03699 -6.26308e-19)
(0.934266 -0.00113874 0)
(0.939652 -0.0031437 0)
(0.846271 -0.00945735 0)
(0.956364 0.0121034 0)
(0.942363 0.0135514 0)
(0.881295 0.00563244 0)
(0.91632 0.0173754 0)
(0.925412 0.0154103 0)
(0.83711 0.00291699 0)
(0.713307 1.39759 3.54014e-20)
(0.746665 1.5061 0)
(0.178931 0.310415 7.075e-20)
(0.229989 0.667888 5.68598e-19)
(0.261502 0.716878 -3.32321e-19)
(0.260744 0.514436 6.61876e-19)
(0.347495 0.812962 1.60018e-18)
(0.141439 0.230894 3.77549e-19)
(0.249936 0.141615 7.30229e-19)
(0.211898 0.131715 1.89097e-19)
(0.213326 0.0803456 3.57996e-19)
(1.18617 0.467563 6.63772e-20)
(1.20057 0.258955 6.12012e-20)
(0.0103884 2.23367 2.52517e-19)
(0.0402853 1.94885 0)
(0.971979 0.0296853 0)
(0.944166 0.0140842 0)
(0.870256 -0.0177124 0)
(0.0114864 3.0744 0)
(0.0197758 2.94415 1.1521e-18)
(0.0163795 2.9564 0)
(0.00635569 2.85052 -1.14301e-18)
(0.00627282 3.09136 2.79414e-19)
(0.00696366 3.08216 0)
(0.779299 1.80695 -1.56649e-19)
(1.23743 2.48131 3.96121e-19)
(0.761211 1.94614 -1.2185e-18)
(0.019449 2.98065 -6.03218e-19)
(0.0344633 2.99822 0)
(-0.0350166 2.87594 0)
(-0.00381214 2.22411 -1.32229e-20)
(-0.003106 2.24521 1.89002e-20)
(0.00197524 1.98902 -7.3209e-21)
(0.278297 1.39447 1.02625e-18)
(0.240455 0.556059 -7.03531e-19)
(0.063681 1.99648 7.61495e-19)
(0.13489 1.88273 -9.09545e-19)
(0.179962 1.51269 9.53714e-20)
(0.00426791 3.11893 -1.55054e-18)
(0.0104252 3.11934 1.6952e-18)
(-0.00927853 2.98073 7.74771e-19)
(-0.00476108 2.97726 -7.29583e-19)
(-0.0211523 2.8803 -7.89097e-19)
(0.00836959 3.09999 -2.07499e-18)
(0.00190345 3.10486 2.08823e-18)
(0.283441 0.695097 0)
(0.249023 0.683326 -1.18489e-18)
(0.0955282 0.223918 5.25979e-19)
(0.358658 0.940738 1.11746e-18)
(0.196524 0.277459 -1.723e-18)
(1.19055 0.176557 6.29662e-20)
(1.20086 0.313999 0)
(1.17893 0.12379 -5.81299e-21)
(0.00168841 2.25264 -1.44159e-21)
(0.0050775 2.2438 0)
(0.0247032 1.98489 0)
(0.339661 1.30349 -3.68282e-19)
(0.375462 1.15264 -8.01818e-19)
(0.211277 0.380215 1.43057e-18)
(1.00588 -0.0108219 0)
(1.00767 -0.00762977 5.09119e-19)
(-0.032417 1.33543 0)
(-0.0446826 1.33779 0)
(1.00221 0.00351745 1.813e-21)
(1.00366 0.00947418 1.03959e-18)
(-0.020117 2.52964 1.19037e-20)
(-0.0249626 2.57221 0)
(0.032952 3.17608 3.95795e-19)
(0.387995 3.48006 0)
(1.17946 0.668992 -5.63484e-20)
(1.01282 0.0131535 -2.13152e-21)
(1.02137 -0.0102593 0)
(1.0017 0.000138031 8.10913e-23)
(0.113102 1.3734 0)
(0.143223 2.56321 0)
(0.0358952 1.31552 0)
(0.000669265 2.61528 2.58026e-20)
(-0.0205413 2.57273 -4.11e-22)
(0.999609 0.0311481 2.51571e-21)
(1.06335 0.00494668 0)
(1.09803 0.0256372 0)
(-0.0323375 1.74613 0)
(-0.0185488 2.57384 0)
(-0.00591381 1.32577 0)
(0.311847 1.48664 -1.66536e-19)
(1.01131 -0.00960611 0)
(1.0094 -0.0149134 0)
(1.00237 0.000764122 6.50698e-19)
(1.00547 -0.00479274 -7.64745e-19)
(1.00118 -0.000964291 0)
(-0.0197084 1.47661 0)
(-0.00770905 1.39045 0)
(-0.0117446 1.43464 0)
(-0.0109304 1.31225 0)
(-0.0254925 1.30011 0)
(-0.0137806 1.28485 0)
(1.03512 -0.005997 0)
(1.01978 0.0161449 -9.23483e-22)
(0.825558 1.27893 2.61701e-19)
(1.00223 0.000330588 -6.48079e-19)
(1.00406 0.00526744 7.58854e-19)
(1.00118 0.00208039 0)
(1.01269 0.0103971 6.45177e-19)
(1.00797 0.00832199 -7.81704e-19)
(1.00855 0.0146836 0)
(-0.0240392 2.60113 0)
(-0.0265128 2.58013 -2.2394e-20)
(-0.0235377 2.5945 1.58138e-20)
(1.24002 0.270462 5.82648e-19)
(1.16407 0.0879904 0)
(0.0384959 3.0786 -8.89426e-19)
(0.0646215 2.8572 -6.46734e-20)
(0.136246 3.19179 1.35836e-18)
(0.131552 3.2189 -1.89434e-19)
(0.131507 3.22879 0)
(0.0186378 3.13728 2.2953e-19)
(0.0728577 3.15961 8.77077e-19)
(0.0657613 3.18449 -4.32781e-19)
(0.0215418 3.1297 0)
(0.549289 0.280258 0)
(0.482048 0.29936 0)
(1.15213 0.70547 1.26974e-19)
(1.14485 0.827205 -1.09343e-19)
(1.20739 0.591865 0)
(1.23444 0.525148 0)
(1.01599 0.0134107 -1.20253e-18)
(1.01492 0.0142913 1.5098e-18)
(1.02543 -0.00978038 0)
(1.02349 -0.01183 0)
(1.00643 0.00266892 0)
(1.01042 0.00377722 0)
(1.00458 0.00188136 0)
(1.00977 0.00627954 0)
(1.0078 0.00597178 0)
(1.0045 0.00474133 0)
(0.101771 1.37209 0)
(0.0988505 1.33365 0)
(0.132402 1.40876 0)
(0.150173 1.41281 0)
(0.145352 2.58837 0)
(0.18473 2.65912 -4.22881e-19)
(0.101716 2.6433 0)
(0.0854161 2.64643 1.98032e-19)
(0.0392571 2.66974 -1.4653e-19)
(0.023256 1.33342 0)
(0.0334444 1.24836 0)
(0.0253649 1.34401 0)
(0.0469289 1.26948 0)
(0.00492537 1.98061 6.15593e-21)
(-0.0194725 2.60046 -2.38494e-20)
(-0.0072811 2.65653 9.80305e-21)
(-0.0171559 2.67653 0)
(-0.0225389 2.60617 6.13636e-21)
(-0.0225802 2.60121 2.00361e-20)
(0.0136419 1.97855 -1.02626e-21)
(-0.00701937 2.38656 3.19943e-20)
(-0.012372 2.40991 -1.11185e-20)
(1.01185 0.0400196 1.21715e-18)
(1.00543 0.021202 -1.5154e-18)
(1.00403 0.0472612 -1.24007e-18)
(0.978737 0.0378921 1.56053e-18)
(1.06455 0.00873756 0)
(1.04964 -0.00810342 0)
(1.09515 0.0356657 0)
(1.07474 0.0133245 0)
(1.07255 0.00110158 0)
(1.14109 0.0848139 0)
(1.11265 0.0455074 0)
(1.1169 0.0331589 0)
(-0.0270722 2.42427 1.83917e-21)
(-0.0165726 2.01459 0)
(-0.0193878 2.21315 0)
(-0.0205054 2.59436 -1.38066e-20)
(-0.0175043 2.60455 3.00172e-22)
(0.00173491 1.58956 -4.41932e-20)
(-0.0103118 1.51703 4.50641e-20)
(-0.0187747 1.40575 0)
(-0.0230364 1.413 0)
(-0.0307738 1.40722 0)
(-0.00218644 1.3277 0)
(0.0155495 1.24288 0)
(0.388263 1.50411 2.70458e-19)
(0.431727 1.50465 1.44339e-19)
(0.596646 2.43882 -2.40945e-19)
(0.396938 2.53647 7.08586e-19)
(0.348227 2.04605 7.26941e-20)
(1.0211 -0.00808472 0)
(1.01552 -0.00972783 0)
(1.01493 -0.0154952 0)
(1.00741 -0.00104352 0)
(1.00493 -0.000897627 0)
(1.00779 -0.00466701 0)
(1.00928 -0.00357708 0)
(1.01424 -0.00433615 0)
(1.02049 0.016659 1.17823e-18)
(1.01751 0.0158291 -1.50973e-18)
(1.0208 0.0189585 -1.18749e-18)
(1.0182 0.0175261 1.48838e-18)
(0.788818 1.3292 0)
(0.72382 1.38074 2.46241e-19)
(0.902025 1.22926 9.86605e-20)
(0.947776 1.17507 -1.31304e-19)
(1.15133 2.59313 2.89418e-19)
(0.763662 0.123635 6.02959e-19)
(1.16463 0.11094 0)
(1.2145 0.196981 -4.69091e-19)
(1.20212 0.157137 -2.00088e-20)
(1.00569 0.159249 0)
(0.125211 2.95998 5.17322e-19)
(0.101041 2.86556 -1.12567e-18)
(0.00689662 2.37839 7.49402e-19)
(0.110105 -0.183619 -3.01986e-19)
(0.333195 3.41058 -2.18204e-19)
(0.189038 3.30656 0)
(0.233282 3.34583 2.84182e-19)
(0.236172 3.03113 -1.7385e-18)
(0.328359 3.18802 0)
(0.00703404 3.12077 4.50628e-20)
(0.0170603 3.12951 -5.29796e-19)
(0.0154145 3.12563 7.79771e-19)
(0.0343717 3.13944 0)
(0.0325013 3.15015 0)
(1.20544 2.58986 0)
(0.550885 0.79598 -5.276e-19)
(1.07141 0.999906 -1.06494e-20)
(1.00735 1.08391 0)
(0.860993 0.978495 -1.09792e-19)
(1.09869 0.900637 2.78636e-20)
(0.259653 0.303917 -8.0434e-19)
(0.636974 0.325969 -1.55359e-20)
(0.521224 0.219342 4.0682e-19)
(0.501004 0.336687 2.89794e-20)
(0.382041 0.260234 -1.15996e-18)
(0.588025 0.326348 0)
(0.705788 0.43353 6.62903e-19)
(0.702953 0.433831 0)
(0.544679 0.341534 0)
(0.453601 0.237545 0)
(0.833643 0.633098 4.07349e-19)
(1.24148 0.292957 -4.89891e-19)
(1.24231 0.432993 0)
(1.25033 0.372955 0)
(0.669489 0.195731 6.23604e-19)
(0.877637 0.564074 -3.71446e-19)
(0.777016 0.542435 6.6338e-19)
(0.963341 0.453624 -7.35037e-19)
(1.01921 0.015069 8.09754e-19)
(1.01752 0.0144144 -8.13364e-19)
(1.01576 0.0154674 0)
(1.03659 -0.00553551 0)
(1.02998 -0.00832697 -7.61714e-19)
(1.02803 -0.0119252 7.54146e-19)
(1.02491 0.0107118 0)
(1.02339 0.014472 0)
(1.01142 0.00420699 0)
(1.01417 0.00922684 0)
(1.01518 0.00423907 0)
(1.01429 0.00294703 0)
(0.0727048 1.35545 0)
(0.0802046 1.2999 0)
(0.149279 1.3907 5.82651e-21)
(0.282605 1.48506 8.85136e-20)
(0.177566 1.45568 1.86023e-19)
(0.209813 1.46091 -3.03346e-19)
(0.177956 1.41648 0)
(0.136558 1.59968 -7.34103e-20)
(0.120374 1.57971 0)
(0.343949 1.99449 -1.05712e-19)
(0.340565 2.33198 6.15199e-19)
(0.196645 1.46749 6.39901e-20)
(0.269966 1.40231 2.22404e-20)
(0.203265 1.39531 -1.79587e-20)
(0.279996 1.34498 -1.07694e-19)
(0.243194 1.5781 0)
(0.269837 1.61451 1.15706e-19)
(0.0313094 2.25306 -2.92202e-20)
(0.0442104 2.6587 0)
(0.0669431 2.38915 1.37211e-19)
(0.063721 2.40971 0)
(0.0699774 2.66002 -2.19461e-19)
(0.0496658 2.689 0)
(0.0307797 1.45229 3.68365e-20)
(0.036985 1.49857 0)
(0.0351704 1.41677 0)
(0.0309037 1.42336 -4.15699e-20)
(0.00146579 2.64268 -1.65096e-20)
(0.0303026 2.68812 1.64314e-19)
(0.0111102 2.71351 1.14972e-21)
(0.00688786 1.84043 -9.60708e-21)
(-0.00033824 1.6947 -5.08677e-21)
(0.0198114 1.30961 0)
(0.0307649 1.22291 0)
(0.046229 1.59722 -2.81605e-20)
(0.0360814 1.47824 -3.41799e-20)
(0.0397677 1.54077 4.27142e-20)
(0.0413437 1.62053 0)
(-0.0301302 2.26566 1.0827e-19)
(-0.0311143 2.54116 -4.50776e-20)
(-0.0168508 2.43956 5.42313e-21)
(-0.000819099 1.85572 1.16421e-20)
(-0.0255739 2.49182 4.92124e-21)
(-0.019753 2.43635 -8.42821e-21)
(1.01893 0.0223672 -8.07557e-19)
(1.01553 0.0287343 8.10701e-19)
(1.01285 0.0183795 0)
(1.00904 0.0715576 1.13641e-18)
(0.991621 0.0620595 -1.26833e-18)
(0.950876 0.0561424 1.41812e-18)
(1.01255 0.112072 -1.51229e-19)
(1.04304 -0.0055013 0)
(1.05151 -0.00105674 7.26373e-19)
(1.03935 -0.00966862 -7.27874e-19)
(1.07232 0.0433726 -4.32085e-20)
(1.06523 0.0244717 3.72588e-19)
(1.06314 0.0577292 0)
(1.05416 0.0511086 -1.34051e-19)
(1.03215 0.0424507 0)
(1.02661 0.0385839 0)
(1.02791 0.0138816 0)
(1.02392 0.0166745 0)
(1.04025 0.0333464 2.76056e-19)
(1.03893 0.0272121 -6.10258e-19)
(1.05145 0.0349688 -2.9254e-19)
(1.04837 0.035069 -3.22226e-19)
(1.07176 0.0661138 6.289e-19)
(1.0974 0.0539006 0)
(1.10696 0.0983687 0)
(-0.0258515 2.27026 6.06458e-20)
(-0.0262002 2.02002 1.7161e-21)
(-0.0221749 2.02743 0)
(-0.0272083 2.43852 -6.03562e-20)
(-0.023137 2.39511 -3.47496e-21)
(-0.0337434 2.46498 6.54059e-21)
(-0.020223 2.61373 -1.75963e-20)
(-0.023235 2.55526 5.2614e-22)
(-0.021775 2.50732 -5.2455e-21)
(-0.0155836 2.60753 1.35848e-20)
(-0.0204695 2.6096 -1.50025e-20)
(-0.00683347 1.51828 -9.96966e-22)
(0.00219728 1.63618 -4.30367e-20)
(0.373388 1.45288 -1.13595e-19)
(0.373422 1.38536 4.19852e-20)
(0.664579 1.43048 -2.38162e-19)
(0.530644 1.49737 -1.41654e-19)
(0.588592 1.46349 0)
(0.592377 2.41598 2.07504e-19)
(0.660991 2.4121 3.38123e-19)
(0.410507 2.50523 8.82284e-20)
(0.40181 2.52911 -6.10193e-19)
(0.509317 2.46951 6.16464e-19)
(0.552476 2.45263 0)
(0.486863 2.51071 -5.59801e-19)
(0.247898 2.58275 1.14264e-18)
(0.354161 2.55465 -7.67798e-20)
(0.283291 2.64447 -1.58626e-18)
(0.94773 2.36866 7.32138e-19)
(0.83749 2.37439 0)
(1.01109 0.000562146 2.63985e-20)
(1.01538 -0.00533378 -2.14117e-20)
(1.0177 -0.00343003 -3.91071e-19)
(1.01507 -0.000793018 3.93211e-19)
(1.01249 0.00131105 0)
(0.652051 1.29406 0)
(0.6763 1.18786 0)
(0.790791 1.10751 0)
(0.669493 1.15107 0)
(1.1816 2.60659 6.03177e-20)
(1.06926 2.35363 0)
(0.831388 2.15543 3.94132e-21)
(0.821826 2.42245 0)
(0.920585 2.51682 -4.27706e-19)
(0.955584 2.47296 2.84454e-19)
(0.795606 0.184163 0)
(0.736076 0.156948 1.63507e-19)
(0.90529 0.153346 9.53225e-19)
(0.82128 0.156048 -3.56365e-19)
(0.774424 0.0903621 -1.1023e-18)
(1.08314 0.244268 -8.9673e-19)
(0.999596 0.308674 -1.8038e-20)
(0.926571 0.312835 8.62819e-19)
(1.0067 0.237868 7.25389e-19)
(0.947143 0.201962 -1.26096e-18)
(0.908064 0.206331 1.57741e-19)
(0.946675 0.273707 -3.34603e-19)
(0.924359 0.232556 0)
(0.995489 0.19849 6.21773e-19)
(1.04722 0.196949 0)
(1.04505 0.225666 0)
(1.10823 0.122921 2.91493e-19)
(1.07237 0.18318 -1.52119e-20)
(1.07656 0.244217 -1.58572e-19)
(1.10197 0.209869 0)
(1.02093 0.0469003 6.22705e-19)
(1.04028 0.0600794 7.7699e-19)
(1.03369 0.0453527 -6.18834e-19)
(1.04245 0.0680598 -5.21315e-19)
(1.01703 0.0764066 -8.00667e-19)
(0.983625 0.161566 0)
(0.988825 0.106658 0)
(0.965937 0.077137 -5.04535e-19)
(0.903764 0.0981165 2.00819e-19)
(1.04037 0.109086 7.20105e-19)
(1.0696 0.126299 -8.40735e-19)
(1.07688 0.159002 7.50726e-19)
(1.03202 0.15377 0)
(1.07512 0.113607 0)
(1.05408 0.0943022 -3.44598e-19)
(1.04463 0.100043 -5.87556e-19)
(0.578197 1.04829 1.44247e-19)
(0.600729 1.37002 -4.61427e-20)
(1.1518 2.72292 -2.34206e-19)
(1.217 3.06542 3.71582e-21)
(1.24301 2.70528 -1.33005e-19)
(1.2708 2.68798 -2.64582e-20)
(1.19727 2.32747 -1.13599e-20)
(1.20483 2.96905 -9.98659e-20)
(1.22536 2.93465 2.44208e-19)
(1.20665 3.21764 -1.39593e-19)
(1.3655 2.94753 1.92801e-19)
(1.353 2.86524 0)
(0.573534 0.806345 -5.10117e-20)
(0.0949608 1.21219 5.63073e-19)
(0.566766 0.313305 5.30626e-19)
(0.400637 0.0575999 5.67716e-19)
(0.437689 0.307783 6.58272e-19)
(0.540517 0.426286 -1.07139e-18)
(0.544629 0.41996 8.76763e-19)
(0.439449 0.279911 -3.30825e-19)
(0.280659 0.206153 7.42385e-19)
(0.699251 0.271724 -3.60678e-19)
(0.653569 0.293771 0)
(0.583201 0.208536 6.19769e-21)
(0.742488 0.51703 3.59013e-19)
(0.725803 0.488658 -1.30484e-18)
(0.6209 0.450362 8.76287e-21)
(0.61005 0.440011 0)
(0.699956 0.720205 3.96783e-19)
(0.862061 0.784699 3.93028e-19)
(0.786932 0.868035 -4.60033e-19)
(0.907713 0.82198 -1.53314e-19)
(0.939009 0.867253 -3.69212e-20)
(0.946016 0.866978 3.78095e-20)
(0.872814 0.667486 -6.75037e-19)
(0.952563 0.719615 1.42343e-19)
(1.01305 0.734284 0)
(1.00361 0.710481 -1.92282e-19)
(1.02963 0.349671 2.12266e-19)
(1.15143 0.309795 2.88525e-19)
(1.07119 0.28206 3.66481e-19)
(1.02043 0.382698 -4.31813e-19)
(1.06981 0.445061 0)
(1.12631 0.424931 0)
(0.920712 0.386239 1.29049e-21)
(0.835208 0.320227 0)
(0.885982 0.319663 4.07387e-19)
(0.909869 0.320997 -8.41068e-21)
(0.95854 0.457458 2.0472e-18)
(0.9205 0.513607 5.25234e-19)
(0.92415 0.480074 -5.6083e-19)
(0.8374 0.468777 6.0269e-19)
(0.820979 0.463887 3.61476e-19)
(0.789288 0.446711 -3.54769e-19)
(1.02744 -0.000134159 6.51551e-19)
(1.02006 0.000158013 0)
(1.01858 0.00108211 4.24844e-19)
(1.02181 -0.00144179 -9.62412e-19)
(1.0224 0.00463014 4.6754e-19)
(1.02033 0.0116845 -9.79079e-19)
(1.02122 0.0110825 0)
(1.02043 0.0113277 -2.04063e-19)
(1.01594 0.00794171 5.11923e-19)
(1.01658 0.0107576 -2.55498e-19)
(1.01729 0.0101161 1.88095e-19)
(0.0365268 1.33173 0)
(0.0435782 1.38795 0)
(0.0531019 1.33192 0)
(0.0605475 1.27701 0)
(0.076222 1.40517 -4.48682e-20)
(0.0866 1.37082 2.04326e-20)
(0.11486 1.54968 -1.58598e-20)
(0.108604 1.39384 -3.62627e-21)
(0.0415051 1.48331 1.91556e-20)
(0.0451605 1.47702 -1.47357e-20)
(0.069158 1.39273 -1.11945e-20)
(0.0617471 1.39343 4.443e-20)
(0.0562139 1.37053 6.64533e-21)
(0.0466285 1.39438 3.78459e-21)
(0.10764 2.35631 -1.5161e-19)
(0.096351 2.40542 0)
(0.169414 2.03041 1.09713e-19)
(0.115036 1.7022 4.08937e-20)
(0.234872 2.02848 -9.07711e-20)
(0.198762 2.41824 0)
(0.26157 2.36812 -6.10089e-19)
(0.301794 2.3658 4.30833e-19)
(0.228562 1.98792 -2.52952e-19)
(0.155094 2.14629 1.71238e-19)
(0.141358 2.25211 0)
(0.0193234 1.87632 7.11413e-21)
(0.00164247 2.38121 -2.99513e-20)
(0.00696222 2.13937 0)
(0.0121294 2.44554 -1.36787e-20)
(0.0299123 2.28805 8.21851e-21)
(0.0192516 1.43144 -8.13974e-21)
(0.017833 1.41368 1.38283e-19)
(0.0160345 1.4225 -4.56675e-20)
(0.0241844 1.42836 -3.84714e-20)
(0.0288536 1.45622 0)
(0.0115841 1.40674 0)
(0.00527837 1.31006 -6.32916e-20)
(0.00782896 1.40095 1.83794e-20)
(0.0137588 1.39824 0)
(0.0137244 1.29976 -4.64793e-20)
(0.027001 1.21394 9.51624e-20)
(1.04086 0.0121535 0)
(1.04711 0.00843816 -6.81702e-20)
(1.03893 0.022722 -4.91705e-19)
(1.0486 0.0213971 0)
(1.05246 0.0211858 0)
(1.03656 0.0124343 -6.81573e-21)
(1.03124 0.0122812 7.90267e-19)
(1.03178 0.0173201 9.58456e-19)
(1.02558 0.0212741 0)
(1.02252 0.0218796 0)
(1.03541 0.0263292 4.90547e-19)
(1.02589 0.0280978 0)
(1.02406 0.0277007 0)
(-0.0174129 2.02304 0)
(-0.000709166 1.66483 -4.04542e-21)
(-0.00481094 1.76772 -3.23628e-20)
(-0.00119053 1.40811 0)
(-0.00495477 1.57137 -2.45285e-20)
(-0.0110195 1.48501 1.51325e-20)
(-0.00909749 1.42573 0)
(0.387238 1.63234 0)
(0.376344 1.31098 -8.17734e-20)
(0.299949 1.33948 0)
(0.427655 1.30942 1.79583e-20)
(0.479229 1.47503 0)
(0.459356 1.41898 2.07002e-20)
(1.03567 2.66873 -1.54812e-20)
(0.96789 2.39697 -9.19976e-19)
(0.921103 2.18617 1.02932e-18)
(0.851615 2.36615 2.43319e-19)
(0.84696 2.47761 0)
(0.916628 2.47376 0)
(0.931069 2.36208 0)
(0.910045 2.35186 -9.50198e-19)
(0.685127 2.44053 -3.99247e-19)
(0.798685 2.42998 -9.87143e-20)
(0.808643 2.40417 7.49607e-20)
(0.694663 2.38495 0)
(0.800017 2.38016 0)
(0.758001 2.39386 -3.70002e-19)
(0.766227 2.46727 0)
(0.637994 1.09518 0)
(0.479292 0.891973 -5.27155e-19)
(0.575314 0.942201 -3.32753e-20)
(0.517955 1.02662 0)
(0.51841 0.966716 7.88078e-19)
(0.807237 0.890009 -1.30153e-19)
(0.815002 1.02492 0)
(0.790635 0.991989 1.85716e-19)
(0.675536 1.03582 0)
(0.676214 0.938497 0)
(1.16137 2.74605 -2.33922e-19)
(1.13873 2.80961 -1.01541e-19)
(0.926421 2.32206 1.0831e-19)
(0.894525 2.30187 -8.52958e-20)
(1.12724 2.71888 0)
(1.08142 2.68818 1.02593e-19)
(1.08636 2.47154 -3.1557e-19)
(0.980844 2.22509 -2.99482e-20)
(0.489764 1.32203 0)
(0.50638 1.05552 -1.27103e-19)
(0.580425 1.16874 0)
(0.848631 0.2516 0)
(0.755874 0.200732 0)
(0.661785 0.154601 0)
(0.839569 0.252565 -6.33761e-19)
(0.725838 0.245733 3.75535e-19)
(0.922111 0.0913677 -4.13799e-19)
(0.924391 0.133382 0)
(0.91265 0.142357 1.78813e-19)
(0.848711 0.118166 7.14899e-19)
(0.812451 0.0791229 -4.47948e-19)
(1.15093 3.34217 -7.10103e-19)
(1.20063 3.26195 0)
(1.14832 3.37156 -1.48021e-18)
(0.637514 3.53369 1.2541e-18)
(0.856999 3.10394 6.61901e-20)
(0.52534 0.78109 6.10848e-19)
(0.420528 0.778648 0)
(0.293452 0.334755 -1.47608e-19)
(0.485348 0.6503 8.55995e-19)
(0.57692 0.324251 -1.892e-19)
(0.516929 0.462565 2.27194e-19)
(0.674246 0.518911 4.83106e-19)
(0.722296 0.560869 0)
(0.672253 0.571229 0)
(0.639992 0.528619 0)
(1.01272 0.620875 8.77329e-20)
(0.926093 0.562798 -5.11564e-19)
(0.952091 0.593882 3.8507e-19)
(0.98065 0.53379 -3.96904e-19)
(1.09002 0.50003 0)
(1.099 0.591846 -9.63276e-20)
(0.856085 0.41944 -8.32828e-19)
(0.854006 0.407364 -1.03229e-18)
(0.783394 0.401329 6.31903e-19)
(0.792668 0.389532 -6.42565e-19)
(0.841865 0.345261 -5.2171e-19)
(0.787132 0.341054 6.37648e-19)
(1.02679 0.00620323 -4.98058e-19)
(1.02648 0.00643879 1.01406e-18)
(1.02957 0.000342412 6.3142e-19)
(1.03376 0.00123725 -7.60527e-19)
(1.03397 0.00938761 0)
(1.03024 0.0100716 -1.23727e-18)
(0.0644534 1.63825 1.90812e-20)
(0.0530268 1.59122 0)
(0.0916637 1.68734 1.29306e-19)
(0.098934 1.66856 -1.14641e-19)
(0.0927834 1.55082 2.83715e-20)
(0.0920595 1.55264 0)
(0.014037 1.69705 0)
(-0.00173933 1.51504 1.09994e-20)
(-4.79286e-05 1.46178 -9.8873e-21)
(-0.00695872 1.56795 5.55427e-21)
(0.0031216 1.88737 1.61709e-20)
(-0.00882887 1.94083 -3.9809e-21)
(0.496372 1.352 -2.81274e-19)
(0.491432 1.35118 3.08971e-19)
(0.455536 1.30517 -3.71759e-20)
(0.437044 1.28021 7.99637e-21)
(0.644117 1.31267 0)
(0.558293 1.40352 1.01092e-19)
(0.574897 1.41042 -9.84209e-20)
(0.469885 1.29882 3.63274e-20)
(0.525541 1.24438 0)
(0.576643 1.20617 0)
(0.652267 2.40038 5.86466e-19)
(0.668148 2.44239 1.26429e-18)
(0.712414 2.45319 -8.71269e-19)
(0.608473 2.42708 -2.02332e-19)
(0.559105 2.51661 2.85331e-19)
(0.508529 2.49185 -7.60576e-19)
(0.977083 2.36873 -5.7629e-19)
(1.01033 2.38058 0)
(0.924304 2.16417 -6.59964e-19)
(1.05274 2.66712 0)
(1.05512 2.65369 0)
(0.590929 2.24914 -1.40808e-19)
(1.03247 3.14882 1.16802e-19)
(0.90382 3.01974 -1.83974e-20)
(0.254432 0.817758 0)
(0.276516 0.655702 -3.19143e-19)
(0.451523 0.61809 -3.23086e-19)
(0.371401 1.99241 0)
(0.45787 2.77563 -4.60807e-20)
(0.409819 2.53794 0)
(0.726565 0.670602 -8.37261e-19)
(0.80962 0.69367 1.11496e-18)
(0.829178 0.6341 -1.10126e-18)
(0.702641 0.636456 -1.06749e-19)
(0.756104 0.596722 -4.36448e-19)
(0.997428 2.74616 -8.88417e-20)
(1.04025 2.81028 -1.74729e-19)
(0.626113 2.10752 7.27402e-19)
(0.577636 1.67714 -5.17317e-19)
(0.690287 1.88083 -4.18535e-19)
(0.984245 2.43078 -1.1349e-19)
(0.991998 2.42413 3.05311e-19)
(0.642601 1.81168 2.9055e-20)
(0.435935 1.29997 1.48198e-19)
)
;

boundaryField
{
    wall-4
    {
        type            noSlip;
    }
    velocity-inlet-5
    {
        type            fixedValue;
        value           uniform (1 0 0);
    }
    velocity-inlet-6
    {
        type            fixedValue;
        value           uniform (0 3 0);
    }
    pressure-outlet-7
    {
        type            zeroGradient;
    }
    wall-8
    {
        type            noSlip;
    }
    frontAndBackPlanes
    {
        type            empty;
    }
}


// ************************************************************************* //
