/*--------------------------------*- C++ -*----------------------------------*\
| =========                 |                                                 |
| \\      /  F ield         | OpenFOAM: The Open Source CFD Toolbox           |
|  \\    /   O peration     | Version:  2206                                  |
|   \\  /    A nd           | Website:  www.openfoam.com                      |
|    \\/     M anipulation  |                                                 |
\*---------------------------------------------------------------------------*/
FoamFile
{
    version     2.0;
    format      ascii;
    arch        "LSB;label=32;scalar=64";
    class       volScalarField;
    location    "84";
    object      p;
}
// * * * * * * * * * * * * * * * * * * * * * * * * * * * * * * * * * * * * * //

dimensions      [0 2 -2 0 0 0 0];

internalField   nonuniform List<scalar> 
918
(
0.557885
1.17109
0.00098947
0.557354
-0.0127088
1.13806
-0.514171
0.650512
0.538095
-0.107059
-0.0581375
0.540079
0.998781
0.763261
-1.12487
-0.0141205
0.651914
-0.382976
0.537227
-0.0714602
0.673842
0.544625
0.547649
0.538225
0.597417
0.736212
0.879664
0.0300825
0.0119459
0.00701978
-0.0122452
-0.0391868
-0.033953
1.02173
1.07279
1.09548
0.505798
0.334279
-0.379864
-0.453843
-0.439699
-0.538832
0.652313
0.654157
-0.21791
0.65156
0.649279
0.525093
0.537466
0.53838
0.539387
0.538378
0.539755
0.402
-0.108191
-0.139405
-0.0880269
-0.0810492
0.04805
-0.0569257
-0.0574912
-0.0572232
-0.0593039
0.454846
0.534582
0.531213
0.544298
0.553572
1.11064
1.0826
1.10872
1.0223
1.03882
0.976799
0.949383
0.785
0.80677
0.747231
0.734645
-1.55326
-2.49874
-0.538253
-0.289494
-0.0107389
-0.0124632
-0.00719405
0.649258
0.650389
0.651997
0.653756
1.07797
-0.380194
-0.48277
0.537372
0.536182
0.544488
0.545191
0.541212
0.540301
-0.0632322
-0.0607795
-0.0583173
-0.0661728
-0.0631409
0.646794
0.653092
0.538751
0.535752
0.561325
0.581976
0.571699
0.277353
0.608239
0.624361
0.571231
0.7311
0.723689
0.733268
0.853314
0.816155
0.916834
0.940186
0.0186143
-0.000353559
-0.0183435
-0.0214105
-0.0206814
0.501624
0.494155
0.522049
0.50924
0.511751
0.251583
0.118953
0.418891
0.443458
-0.299576
-0.36796
-0.432011
-0.461882
-0.569558
0.614346
0.654753
0.652048
-0.227073
-0.15523
-0.290013
-0.081873
-0.145245
0.515336
0.522366
0.517355
0.532934
0.527395
0.529361
0.541744
0.538812
0.540373
0.464049
0.587443
0.328274
0.292571
-0.243882
-0.154963
-0.242949
-0.0707222
-0.0682231
0.0624682
0.0884112
0.0345476
0.0226239
-0.0640406
-0.059649
-0.0616406
-0.0588629
-0.0594309
0.44755
0.436253
0.467565
0.475142
0.521288
0.52272
0.527109
0.525185
0.900333
0.922708
0.930119
0.903919
-3.48194
-6.25203
0.0328935
0.168335
-0.00696301
-0.00981416
0.00187561
-0.00634502
-0.000330001
-0.00225702
-0.0130272
-0.0142707
-0.00875602
-0.0077435
0.644146
0.644829
1.0009
1.00887
0.975686
0.9288
0.525656
0.52769
0.53316
0.529061
-0.059995
-0.0599121
-0.0596203
0.649396
0.648646
0.649339
0.238593
0.148232
0.328692
0.358048
0.637699
0.627006
0.636013
0.631325
0.666055
0.947593
0.96567
0.964015
0.972219
1.0163
1.03273
0.997999
0.481
0.491019
0.485947
0.524869
0.522787
0.523624
0.520103
0.521076
0.519266
-0.0308509
-0.408963
0.490673
0.506733
0.493049
0.494602
0.694505
0.773198
0.653273
0.653922
0.653779
-0.0117862
-0.070359
0.247538
0.213087
0.386722
0.423353
0.402172
0.871462
0.831785
0.881887
0.855377
0.816735
0.842933
-0.360624
-1.85322
-0.976107
0.514639
0.330931
0.417197
0.0042345
-0.0126044
-0.00796773
1.00161
1.07299
0.6432
0.818634
0.820724
0.703046
0.733494
0.789211
0.713795
0.749372
0.785014
0.766606
0.569982
0.503872
0.520607
0.841987
0.897424
0.117492
0.0548004
0.0110998
0.107673
0.165585
0.139331
1.03272
0.950646
1.02036
0.535515
0.53624
-0.00749547
-0.0216201
0.540507
0.540564
-0.0141047
-0.00392533
0.400466
-0.832294
0.0948045
0.529126
0.518944
0.536113
-0.0929088
0.353386
-0.0572665
0.0439042
-0.0141602
0.530395
0.466002
0.424991
-0.00246506
-0.0237193
-0.0620248
-0.213485
0.533184
0.531488
0.53558
0.536515
0.5372
-0.0216446
-0.0176697
-0.0118216
-0.0566103
-0.0473057
-0.0623606
0.499966
0.519148
-0.172077
0.535731
0.53787
0.537686
0.530977
0.536591
0.534853
-0.0141743
-0.0183135
-0.0210182
0.218129
0.351507
0.637114
0.721191
0.61062
0.388126
0.154952
0.542113
0.604428
0.51142
0.663303
0.64983
0.647305
0.160193
0.0093433
0.169737
0.111624
0.526986
0.525732
0.517193
0.514146
0.53098
0.529091
0.533657
0.530689
0.533642
0.535017
-0.0494157
-0.0753581
-0.0852133
-0.151999
0.308129
0.568906
0.253194
0.282373
0.138851
-0.0525254
-0.0541719
-0.0546336
-0.0612339
-0.00285389
-0.0299467
0.0382132
0.0380038
0.0087364
-0.0167448
-0.0135805
-0.0250197
-0.0183668
0.52365
0.523547
0.528467
0.537088
0.475694
0.479479
0.444169
0.465046
0.450189
0.388576
0.42427
0.399332
-0.00822226
-0.000574938
-0.0047384
-0.0223246
-0.0190437
-0.0386333
-0.0354322
-0.0311306
-0.0270362
-0.0337082
-0.0554979
-0.0606062
-0.171187
-0.28732
0.987573
0.906907
0.139093
0.522321
0.528787
0.525543
0.530488
0.533618
0.53441
0.532111
0.528654
0.519451
0.52112
0.517654
0.518583
-0.10261
-0.245169
-0.0734466
-0.149359
0.146914
0.628863
0.363406
0.298213
0.293763
0.523552
0.90725
0.68852
0.652985
0.639965
-0.346803
0.0387876
-0.284608
0.328034
0.158367
0.638264
0.686735
0.707747
0.656197
0.609728
-0.0975034
0.556327
-0.0777345
-0.024686
0.177906
0.0518806
0.641107
0.638794
0.645256
0.639302
0.648477
0.641006
0.620981
0.622907
0.638987
0.646003
0.479284
0.248758
0.198898
0.160435
0.644058
0.51299
0.561457
0.48843
0.522237
0.524828
0.523495
0.504802
0.512399
0.507914
0.514484
0.518057
0.526689
0.527177
0.522416
0.524548
-0.0558855
-0.0615991
-0.0260073
-0.135795
-0.128623
-0.190911
-0.0600416
0.0749385
0.0363395
0.236865
0.340197
0.0518919
-0.0571806
-0.0300533
0.0133267
0.179894
0.208639
0.0727333
0.159329
0.152024
0.132489
0.235484
0.238277
-0.0336094
-0.0344844
-0.0386767
-0.042312
0.0151622
0.0870532
0.0961974
-0.013907
-0.0180109
-0.0528921
-0.0562233
-0.024491
-0.0294807
-0.0251684
0.00301038
-0.0565319
-0.0245187
-0.0110286
-0.013546
-0.0121721
-0.017515
0.518389
0.520116
0.520359
0.529387
0.541521
0.556174
0.521832
0.497973
0.488729
0.491733
0.464646
0.474966
0.4708
0.484431
0.50574
0.514233
0.512547
0.515352
0.497737
0.499456
0.485933
0.489604
0.46468
0.445229
0.433154
-0.0464213
-0.00800148
-0.0165669
-0.0414297
-0.0117387
-0.0235577
-0.0166428
0.00294618
-0.0143302
-0.0147777
-0.02504
-0.0321622
-0.0316462
-0.0729272
0.0143141
-0.185456
-0.220129
-0.293799
0.890073
1.01434
0.808488
0.581352
0.602631
0.846121
0.929853
0.541188
0.734134
0.756967
0.588912
0.856022
0.527177
0.526769
0.524368
0.523844
0.525067
-0.00641735
0.100932
0.0967737
0.162024
0.278694
0.389632
0.322853
0.197182
0.326519
0.328698
0.621283
0.633187
0.589453
0.613653
0.614585
0.425214
0.500892
0.552545
0.513744
0.566197
0.588045
0.541689
0.575192
0.523937
0.479148
0.475259
0.424908
0.444448
0.419894
0.40308
0.517754
0.494347
0.505305
0.49544
0.517563
0.543876
0.54091
0.563459
0.578515
0.498254
0.453344
0.462628
0.492839
0.454478
0.469966
0.48576
0.235942
0.138746
0.221506
-0.0625531
0.00546634
-0.00612587
-0.0553382
-0.00243872
0.28141
-0.407791
-0.385123
-1.00984
0.50708
0.947317
0.562639
0.543124
0.648868
0.638357
0.643734
0.659951
0.652586
0.632572
0.640309
0.645522
0.589079
0.610001
0.625185
0.621822
0.52391
0.378911
0.379247
0.326091
0.196219
0.236681
0.431906
0.356457
0.281691
0.281751
0.456345
0.342339
0.413177
0.445565
0.376447
0.331104
0.534823
0.601038
0.594216
0.567912
0.476716
0.488098
0.513146
0.546781
0.569909
0.604367
0.513903
0.519866
0.521096
0.518566
0.515825
0.518927
0.519186
0.521776
0.522387
0.525411
0.524483
-0.0533438
-0.0399956
-0.050364
-0.0617815
-0.0183319
-0.0208707
0.0224605
0.0102366
-0.0171016
-0.0125291
-0.0334756
-0.0374709
-0.0347589
-0.0275489
0.102226
0.114706
0.0992594
0.0596441
0.250881
0.380257
0.454819
0.329576
0.224322
0.248373
0.266583
-0.0145829
0.0100522
-0.00253016
0.0374032
0.0300103
-0.0441674
-0.0485738
-0.0449978
-0.0357485
-0.0275644
-0.0472388
-0.0563244
-0.0460053
-0.0499685
-0.0543701
-0.0598773
0.500256
0.49375
0.495338
0.489306
0.488016
0.502191
0.506493
0.50849
0.513983
0.516234
0.506343
0.511747
0.515682
-0.0182637
-0.0411699
-0.0441398
-0.0394517
-0.0390033
-0.0365778
-0.0385956
0.124841
0.0563673
0.0597742
0.0125027
-0.120817
-0.0626001
0.493756
0.492318
0.480762
0.722502
0.571737
0.493002
0.590081
0.69575
0.27801
0.473887
0.309704
0.888731
0.786126
0.932189
0.542826
0.248624
0.415441
0.454984
0.270495
0.347988
0.32335
0.213015
0.243353
0.28366
0.381351
0.268217
0.246096
0.00249077
0.19329
0.303686
0.285759
0.409108
0.469104
0.270119
0.189467
0.14429
0.605741
0.625023
0.638385
0.610769
0.633442
0.582244
0.574208
0.589611
0.597811
0.591416
-0.738695
-0.444848
-1.39275
-0.719474
-0.26194
0.537589
0.513079
0.771225
0.642601
0.668978
0.653324
0.615886
0.587369
0.613398
0.633266
0.337455
0.448304
0.423121
0.429789
0.33265
0.262243
0.561865
0.55966
0.592656
0.616762
0.588269
0.618883
0.511704
0.511423
0.510887
0.50713
0.505396
0.507734
0.0576692
0.0250419
0.0665247
0.0489962
0.0267033
0.0147551
-0.0203097
-0.0305866
-0.0370636
-0.0352538
-0.0205712
-0.016936
0.174838
0.111246
0.0314805
0.0600492
-0.00105098
-0.0695779
-0.0893161
0.0173814
0.113726
0.103888
0.406426
0.654948
0.475149
0.64253
0.485702
0.541355
0.468889
0.459769
0.484214
0.381449
0.461961
0.258996
-0.250447
-0.160178
0.797402
0.807149
0.581665
0.410374
0.17649
0.349967
0.538563
0.467352
0.502269
0.570854
0.557185
0.0363894
0.0912238
0.386531
0.61327
0.244629
0.235363
0.228783
0.41579
0.33246
)
;

boundaryField
{
    wall-4
    {
        type            zeroGradient;
    }
    velocity-inlet-5
    {
        type            zeroGradient;
    }
    velocity-inlet-6
    {
        type            zeroGradient;
    }
    pressure-outlet-7
    {
        type            fixedValue;
        value           uniform 0;
    }
    wall-8
    {
        type            zeroGradient;
    }
    frontAndBackPlanes
    {
        type            empty;
    }
}


// ************************************************************************* //
