/*--------------------------------*- C++ -*----------------------------------*\
| =========                 |                                                 |
| \\      /  F ield         | OpenFOAM: The Open Source CFD Toolbox           |
|  \\    /   O peration     | Version:  2206                                  |
|   \\  /    A nd           | Website:  www.openfoam.com                      |
|    \\/     M anipulation  |                                                 |
\*---------------------------------------------------------------------------*/
FoamFile
{
    version     2.0;
    format      ascii;
    arch        "LSB;label=32;scalar=64";
    class       surfaceScalarField;
    location    "84";
    object      phi;
}
// * * * * * * * * * * * * * * * * * * * * * * * * * * * * * * * * * * * * * //

dimensions      [0 3 -1 0 0 0 0];

oriented        oriented;

internalField   nonuniform List<scalar> 
1300
(
3.75095
5.62643
-3.29862
3.75095
-7.75235
5.62643
-4.40624
4.40624
-0.330754
0.330754
1.87639
1.87457
-2.69144
2.69144
-2.02502
2.02502
-2.5219
2.5219
-5.24639
5.24639
-5.06928
5.06928
4.64993
-4.64993
-6.31271
6.31271
-0.937524
0.937524
-3.68961
3.68961
3.16958
-3.16958
-1.96121
1.96121
0.0966721
-0.0966721
-0.553468
4.30442
3.19749
3.19749
-2.00772
2.00772
-4.86959
4.86959
6.21792
-6.21792
5.27789
-5.27789
-1.97927
-2.48609
1.80372
-11.4678
-5.94864
-5.94864
-8.44037
8.44037
-2.81394
2.81249
2.94645
-2.94645
-1.76716
1.76716
-4.37067
-0.0355698
-4.37067
4.37434
0.031893
4.37434
-0.44485
0.114096
-0.44485
4.01468
-4.01468
0.220881
0.109872
0.220881
3.0654
-3.0654
-1.87712
3.75351
1.87383
-1.8719
6.17632
-1.87905
3.75362
-6.01393
6.01393
-2.93656
0.245122
-2.93656
2.47976
0.21168
2.47976
-6.85184
6.85184
-2.08321
0.0581937
-2.08321
1.97318
0.0518353
1.97318
2.88214
-2.88214
-2.62788
0.105972
-2.62788
2.39299
0.128913
2.39299
0.353505
5.27292
-5.97994
8.79243
-5.27292
0.0265358
5.20828
0.0381067
5.20828
-5.1061
0.0368198
-5.1061
5.01354
0.0557437
5.01354
4.73337
-0.0834425
4.73337
-4.76951
0.119588
-4.76951
-3.36726
-4.05378
-6.46385
0.151137
-6.46385
-1.02669
0.0891652
-1.02669
0.825189
0.112335
0.825189
-3.68831
3.68831
-4.11175
0.422143
-4.11175
3.12397
0.0456122
3.12397
1.86849
1.88247
5.61944
-5.61944
2.44986
-1.91728
-0.0439285
-1.91728
-2.04733
-3.23057
2.04733
-0.08612
-0.131466
0.228138
-0.131466
3.15945
0.0380319
3.15945
2.23581
0.157176
-2.23581
0.228098
3.2808
-3.2808
1.3353
0.672419
1.3353
-5.5638
5.5638
4.95705
0.0564853
-4.95705
0.087458
6.15652
0.0613991
6.15652
-6.19956
-0.0183553
-6.19956
2.52571
-5.0118
-2.64842
6.13039
0.182323
-6.13039
0.181749
2.91843
0.0280153
2.91843
-2.91812
2.91812
-2.98486
0.0384158
-2.98486
-2.16549
0.398338
-2.16549
1.46931
0.297847
1.46931
-4.2741
-0.0965695
-4.2741
-4.26249
0.150741
4.26249
0.111853
1.13149
-1.13149
-0.578585
0.133736
-0.578585
-4.13957
-0.134526
4.13957
-0.124892
-3.90223
-0.112448
-3.90223
-3.02463
0.0397685
3.02463
0.0407717
3.11291
0.0465413
-3.11291
0.0475101
-1.87081
3.75328
-1.88014
3.75397
-5.63457
-0.379362
-5.63457
6.32493
-0.310999
6.32493
3.33025
0.359354
-3.33025
0.393689
2.30881
0.170956
2.30881
-6.81317
-0.0386724
-6.81317
6.83754
0.0142947
6.83754
2.17735
0.131461
-2.17735
0.0941361
1.93509
0.0380862
1.93509
2.90278
-0.0206419
2.90278
-2.876
-0.00613628
-2.876
2.79034
-2.79034
2.71513
0.0752116
-2.71513
0.08725
-11.1329
11.1146
-0.035071
-11.0979
5.17321
5.17321
4.1588
0.574566
4.1588
-4.98919
0.219676
-4.98919
2.69255
-5.34097
3.10162
-6.46888
4.65816
-16.126
4.28539
-8.33917
6.70445
-6.70445
6.59305
0.111401
-6.59305
0.1292
-1.14553
0.11884
-1.14553
-3.0875
-0.600814
-3.0875
4.32904
-0.640725
4.32904
-3.02795
3.02795
-3.07739
0.0494389
3.07739
0.0465802
1.91012
0.024978
-1.91012
-0.00716192
0.154448
0.066433
-0.154448
0.0229824
3.49618
-0.215387
3.49618
-3.08125
-0.19955
-3.08125
-1.24501
0.0994766
1.24501
0.0902926
-5.81282
0.249019
-5.81282
-11.1909
0.0929937
-11.1528
-6.10657
-6.10657
2.3338
11.1262
-2.89384
0.0178346
2.89384
0.0245954
2.97453
0.0534149
-2.97453
0.0564098
-2.85736
0.0670231
2.85736
0.0607622
-2.53989
0.3744
-2.53989
-1.07021
1.07021
-1.23385
0.163644
1.23385
0.23546
1.40513
-0.273647
1.40513
0.706391
0.118798
-0.706391
0.127806
-3.79965
-0.102578
-3.79965
6.56065
-0.235713
6.56065
-2.96536
-0.115892
2.96536
-0.0625769
-0.0333439
11.1479
-5.13987
0.033766
5.13987
-11.2093
11.2431
-3.20984
0.669947
3.20984
0.948962
5.28387
0.279929
-5.28387
0.294684
6.78833
0.0492186
-6.78833
0.083877
-2.59526
-0.49224
-2.59526
-5.05346
-0.581112
5.05346
-0.724421
-11.4737
-0.20569
11.6794
-11.4179
6.01851
0.138009
-6.01851
11.3811
-1.03011
-0.101376
1.03011
0.040095
1.73328
-0.328145
1.73328
3.69507
-0.198882
-3.69507
-0.104588
-6.71545
-0.0977163
6.71545
-0.154803
-2.15041
-0.444854
2.15041
-0.417127
-4.26713
4.30517
1.90919
-2.37705
-2.63475
-5.60762
1.85184
1.90144
4.3017
-10.1231
-6.00287
-9.94137
7.26106
-6.96638
-9.23451
9.15106
7.9124
-8.02485
-5.78467
5.83125
6.48299
-6.44222
1.87884
1.87466
8.03242
-7.7873
-15.5774
15.198
7.57502
-7.51683
15.731
-15.7697
-17.8119
17.8611
-5.7077
5.81368
-6.74094
6.73481
-6.97725
6.91468
-2.83181
-3.63707
13.0838
-12.9327
8.62655
-8.67048
-8.63212
9.05426
3.38261
0.922558
3.42915
-1.88213
3.76097
-1.87149
3.78068
2.74864
-5.58046
2.59233
-5.22708
4.39069
4.23586
-4.30457
-1.30304
-5.92499
5.953
-5.81378
5.87454
9.15956
-9.19513
-1.88518
3.75984
-1.86879
3.77023
-3.42499
-2.35968
3.37938
0.922323
8.05056
5.03328
-8.23289
-1.70849
-8.05009
7.85121
-8.23554
8.03599
-0.432544
5.81841
-5.38587
4.43705
-1.56492
7.38333
5.69615
5.91582
5.86597
-5.58604
1.10041
-6.48629
-6.39883
-2.20457
2.33831
2.10789
-1.99802
6.16144
1.75096
6.03655
-5.77155
-2.2533
-5.87413
3.82041
2.01084
3.86985
4.07856
2.40443
4.11833
3.0304
-3.03601
0.00561418
-3.05671
6.0871
0.723832
-5.41639
-4.49406
4.98128
3.05114
5.19296
-5.56255
-2.22475
-5.16886
-9.5237
-6.05366
-10.1048
10.0659
5.13213
9.75488
-11.9348
11.78
4.8121
2.76292
4.86394
-4.95668
-2.56014
-4.86255
11.6321
-2.64491
-8.98723
-10.2985
-7.51344
10.2842
5.44684
10.9398
6.9213
11.0237
4.41746
7.21468
-9.8643
2.35086
-3.86807
-1.83964
-3.78082
3.67602
2.13766
3.80493
-4.21768
-2.52327
-4.19984
-4.29601
-2.68124
4.31665
2.41815
-4.41845
-3.81709
4.53434
2.38033
4.0362
-10.0391
4.30296
-7.94004
-9.17599
-3.75671
-9.04679
3.55238
2.60561
-6.158
-2.02808
8.5582
-4.32234
7.25516
-5.20745
-3.46303
-5.21462
-6.89582
-1.7363
-6.74507
-8.86518
8.37294
-9.16084
8.52011
12.4857
-5.63217
-6.85353
-3.96848
-2.47374
3.92097
-0.49182
-3.71045
3.71607
0.0505186
3.8312
4.75376
4.26194
-3.88479
-1.92899
-3.82838
3.8245
2.05005
3.89152
6.85206
2.3075
6.88395
-6.62972
-2.56541
-6.72629
9.02365
-8.62531
2.83093
-2.73146
5.40323
2.63277
-5.18784
-2.86225
6.20819
-3.22016
-2.98803
-12.2016
10.5226
1.67897
-4.81828
-0.381225
-0.477897
-5.48534
-3.74916
5.36576
0.550069
11.0727
7.32354
-5.51253
5.76155
6.16682
6.22331
-0.175517
5.79584
-5.12589
5.25574
-2.62086
-2.63487
5.4891
-5.62362
-1.23719
-5.54268
4.30549
0.412922
1.41364
-1.18551
-1.75043
-0.454144
-1.62262
1.19981
0.908081
1.26625
0.963853
1.37445
-2.94951
0.509471
2.44004
-1.98566
-1.48855
-3.85515
-1.14055
4.9957
5.7475
2.10372
-5.64291
-0.23122
2.50625
-2.39391
-0.807789
-3.04736
2.2412
-3.04899
-3.66451
-2.09941
5.76392
-3.36975
-0.458633
3.31633
0.553515
-3.8273
-2.09769
3.78888
0.329445
-3.12859
6.19116
-3.06257
-5.05758
2.52745
3.55966
4.53829
-4.78955
2.44782
2.34173
-1.2299
4.24777
0.945185
4.41873
-6.95194
4.72719
5.81293
3.24133
-6.17228
1.00343
-5.94852
8.55175
-7.37837
-1.17338
4.16996
4.38179
7.04708
5.43862
-5.66361
12.7107
-1.20815
-6.17023
7.15666
-3.91533
4.85569
-8.77102
-10.2943
4.12408
-9.11456
10.8888
-1.77427
-3.61732
-8.31744
12.7319
-1.20172
-11.5302
8.55316
-4.28987
-4.40845
8.69833
-6.93478
6.9686
-1.99071
-4.97789
-10.0842
-5.68546
10.1819
1.59802
-9.94142
12.2923
-2.72674
4.12697
0.736969
4.16505
3.30515
-5.49099
2.18584
3.62963
-5.62034
2.07829
-7.56928
-6.71909
12.0487
-5.32961
-10.4758
-9.49932
-0.976488
2.53448
9.7578
-9.45578
7.41101
2.04477
3.30041
0.591115
-3.37562
-0.405202
0.234113
4.51345
-4.74756
4.03904
4.19622
3.26331
1.25014
3.84569
2.10731
-3.87029
-0.329554
-4.16437
1.48313
-1.74622
-3.69501
5.17814
-4.06752
0.372512
-2.74397
-3.49739
6.24136
-4.5836
3.03493
3.15623
5.08498
-4.91344
1.41605
-2.39274
-2.5207
2.65147
-4.39769
1.99496
3.18318
4.3753
0.558204
5.87454
6.17416
-8.48016
0.540122
11.2074
-9.49895
2.46239
8.56131
-9.8734
0.374085
-8.67271
0.996381
-5.31872
-5.16161
5.20444
-6.94075
-3.56658
6.2238
0.660154
-6.33565
-0.409425
-6.02616
-2.83901
-6.47102
-3.03822
-6.12261
-8.70183
-1.64951
-7.05232
6.72342
-6.6714
-3.43341
7.39583
1.12428
-7.39997
7.2986
-7.47854
7.1504
0.095471
3.6206
4.35741
1.88367
-2.3907
4.27437
-5.12588
7.43338
-8.73541
3.60953
4.21683
-6.78224
-4.51858
5.01313
4.01052
5.31097
8.86592
-10.3247
1.45876
-10.6277
11.9618
-1.33406
-16.3794
5.75164
-7.51345
2.43238
0.398557
2.55122
0.541094
2.49872
-3.03981
-2.19036
-2.10007
-2.4429
-3.46469
5.90759
1.08309
-3.53266
2.44957
-3.56756
4.65065
-0.221849
-3.31081
5.26648
-2.76776
5.66503
-3.78941
1.87562
3.44043
5.75372
-2.31328
4.39565
-1.76289
1.93129
-4.24457
-1.5334
-2.95525
5.09291
-3.28611
3.65862
-0.345343
4.00397
-4.04627
0.826113
-0.782966
3.41326
3.64135
4.31673
-3.06658
2.91588
-4.67876
-1.3287
-4.12056
-0.937382
-0.252139
-3.6918
3.94394
5.96487
-6.21701
-5.2263
9.51252
-4.28623
7.68137
-5.37396
-2.30741
-4.24371
-4.38161
3.86931
1.92653
9.6079
0.207866
-5.58183
-4.91803
-3.96907
3.09473
2.16101
-1.70375
3.38272
2.18165
-0.768004
0.429205
0.837042
1.7755
-1.3463
0.325482
1.45002
-0.860025
1.6887
0.817549
-1.8075
0.184873
-1.34729
3.58849
1.09276
-2.00084
0.654543
0.975656
-3.59652
5.07967
-2.69602
-2.38365
6.05533
1.14221
-3.83823
4.40047
-3.98755
2.40357
-3.54412
-1.43466
-5.42221
-3.67125
-2.51485
4.96442
-3.39274
5.49645
1.29991
-5.26523
6.56515
-3.73188
1.63247
-3.04087
3.85841
-0.918771
-2.1221
2.90254
2.86139
-3.0895
0.0421358
-0.18696
2.4053
-2.59226
-0.643697
-2.62936
-4.57369
4.90314
-2.10511
4.55293
2.16926
-1.91732
6.47025
1.80863
-3.72595
-3.24895
-3.70758
-1.38422
3.15407
-0.569469
-4.29308
-5.54736
4.16162
0.257111
-7.06993
7.88711
-0.817185
-4.01878
-0.708409
4.87837
-6.08946
0.469118
-4.01117
3.87594
4.82113
5.07824
-11.31
-0.220187
-6.17784
1.12076
-7.2986
5.50256
-3.52977
7.65385
-10.3052
6.87179
-9.18092
6.48048
-0.818127
6.23851
-4.05267
2.74872
-8.43418
-6.83616
5.55955
-2.79663
6.29651
-3.17496
9.47148
-5.9017
5.34097
4.1305
-1.02953
-4.18509
-5.34592
4.31639
-0.00494337
4.16011
4.98035
-2.87304
4.65079
2.27017
-4.66291
-2.12753
-6.49632
1.83341
-3.34009
-1.92135
3.75476
3.16363
3.75475
1.23406
-3.34955
7.20417
-8.18066
-1.87456
-3.28705
5.33688
-1.0205
3.44486
-6.73192
-1.87386
4.77877
-0.777221
-4.00155
0.853396
-4.41997
1.67575
-6.09573
5.26499
-5.67442
2.22149
-9.73493
-5.17849
-5.13839
-2.25756
-5.22098
-7.55561
5.29805
-1.80397
5.49463
-8.48475
7.70753
-3.47703
8.77508
-5.4215
-1.04952
5.83863
1.31177
10.0868
0.228299
-4.74688
-1.92643
3.83119
-1.90476
1.1683
-3.4635
0.367692
2.49801
3.55732
-6.8035
0.0212603
-4.72562
-3.9123
7.92283
5.60022
11.5651
1.24042
9.10108
-1.17826
10.3415
4.13271
4.36817
-2.97968
4.43843
0.964262
4.57379
-0.926908
2.80253
1.62431
1.71347
0.680438
2.30374
1.33761
3.12985
0.0900378
-2.01003
4.61625
-8.58531
-0.965579
-8.01075
1.14032
5.70314
-4.56282
2.91442
-0.75341
1.00966
-0.142431
-1.16328
1.30571
-2.7773
-1.93128
-0.481262
-1.69808
2.35262
1.89041
-1.87136
-0.905945
0.35164
-4.02289
3.19248
-3.15035
-0.288962
6.27619
-2.81428
0.22202
-1.1818
-2.40734
-2.86148
2.67661
6.17634
0.293907
3.11377
5.19704
3.09935
0.22632
3.88014
-5.65441
-3.68915
-5.87459
-0.372036
4.50633
1.76612
7.99168
5.89662
4.87613
-1.85579
-10.0364
6.50414
-2.06571
5.17008
-1.16853
-4.9272
5.05404
2.37934
-5.71419
0.0397773
-4.88742
-6.95313
-0.510438
8.21797
-9.57641
8.52689
5.68788
1.36444
-4.39737
-0.741021
4.23373
0.134447
10.476
-1.12986
-6.69574
7.8256
-4.57328
3.6077
0.728269
2.65446
2.03398
1.28057
-5.41517
-9.97799
-2.07383
-1.52268
-4.45748
0.538217
-2.42863
6.21302
-2.60532
3.90561
5.22028
6.22994
-2.12604
-4.09097
6.41227
-2.50666
3.72328
)
;

boundaryField
{
    wall-4
    {
        type            calculated;
        value           uniform 0;
    }
    velocity-inlet-5
    {
        type            calculated;
        value           uniform -3.75095;
    }
    velocity-inlet-6
    {
        type            calculated;
        value           uniform -5.62643;
    }
    pressure-outlet-7
    {
        type            calculated;
        value           nonuniform List<scalar> 8(3.29862 7.75235 4.46536 9.66411 7.42104 5.17413 5.79417 8.94355);
    }
    wall-8
    {
        type            calculated;
        value           uniform 0;
    }
    frontAndBackPlanes
    {
        type            empty;
        value           nonuniform List<scalar> 0();
    }
}


// ************************************************************************* //
