/*--------------------------------*- C++ -*----------------------------------*\
| =========                 |                                                 |
| \\      /  F ield         | OpenFOAM: The Open Source CFD Toolbox           |
|  \\    /   O peration     | Version:  2206                                  |
|   \\  /    A nd           | Website:  www.openfoam.com                      |
|    \\/     M anipulation  |                                                 |
\*---------------------------------------------------------------------------*/
FoamFile
{
    version     2.0;
    format      ascii;
    arch        "LSB;label=32;scalar=64";
    class       volVectorField;
    location    "84";
    object      U;
}
// * * * * * * * * * * * * * * * * * * * * * * * * * * * * * * * * * * * * * //

dimensions      [0 1 -1 0 0 0 0];

internalField   nonuniform List<vector> 
918
(
(0.98516 -0.000508398 0)
(0.00501658 2.96625 0)
(0.00753871 0.883304 0)
(0.979705 0.00214502 0)
(-0.0121666 2.06148 3.7967e-20)
(-0.00705183 2.9488 -2.43532e-18)
(0.822571 1.16858 4.51756e-19)
(0.0999978 0.0699541 -1.45188e-20)
(0.999909 -0.000275256 0)
(0.066763 0.737574 0)
(0.0189736 0.478531 0)
(0.731694 0.00657511 0)
(0.0111449 2.93033 0)
(0.0027391 2.79543 0)
(-0.0179431 3.14597 7.82622e-19)
(-0.0212096 1.91756 1.2496e-20)
(0.287017 0.0601802 1.01884e-18)
(0.189297 1.145 3.1784e-19)
(0.96271 0.00501611 0)
(0.00618428 0.429107 0)
(-0.00637541 0.0186684 -6.6873e-19)
(1.00197 -0.00497412 0)
(1.00023 -0.00978305 0)
(0.975741 -0.00643852 0)
(0.598138 0.0305822 0)
(0.0135072 2.64274 0)
(-0.0148128 2.90998 8.93552e-19)
(0.0122318 0.926888 0)
(-0.0208065 1.18414 0)
(0.0145235 0.911001 0)
(-0.015237 2.58562 0)
(-0.00105729 2.11531 -3.03226e-20)
(-0.011168 1.89731 0)
(-0.0205921 2.98761 -8.74367e-23)
(-0.0166792 3.00529 1.89247e-18)
(0.0021006 3.00016 0)
(0.871477 -0.00965929 0)
(0.400996 0.929936 1.81155e-19)
(0.809501 1.18198 -5.17684e-19)
(0.960412 1.02903 5.63409e-19)
(0.676945 1.27372 -1.05314e-19)
(0.676568 1.24751 6.02832e-19)
(0.125146 0.120544 1.41714e-20)
(0.13689 0.0580521 0)
(1.16712 0.56658 0)
(0.0901986 0.0894323 6.37729e-20)
(0.0635069 0.047509 -6.62544e-20)
(0.919931 -0.00745745 0)
(1.00027 0.000162921 0)
(0.999909 0.000339774 0)
(1.00363 -0.00775688 0)
(1.00096 -0.000917703 0)
(1.00017 3.84101e-05 0)
(0.0727698 1.8264 -7.68373e-19)
(0.032575 0.946444 0)
(0.0986891 0.81647 0)
(0.0147577 0.893467 0)
(0.0413934 0.657269 0)
(0.00701529 2.01609 0)
(0.002826 0.773251 0)
(0.0192823 0.499819 0)
(-0.00225068 0.759521 0)
(0.0114735 0.458338 0)
(0.842205 -0.0156606 0)
(0.84245 0.0269934 0)
(0.757769 0.00365749 0)
(0.801077 0.0293808 0)
(0.700851 0.0184121 0)
(0.0146805 3.00041 9.02266e-19)
(0.0114851 3.00813 0)
(0.00609746 3.00273 0)
(0.0135521 2.99739 1.02296e-23)
(0.00794761 2.95846 -1.34099e-18)
(0.0144968 2.98197 0)
(0.0108965 2.90357 0)
(0.0241882 2.93065 2.04146e-24)
(0.00470827 2.82531 0)
(0.0306747 2.91667 0)
(-0.00492179 2.74614 0)
(0.303675 3.53707 0)
(-0.131465 3.61738 0)
(0.136829 3.23575 -7.28294e-19)
(-0.0140574 2.97527 0)
(-0.027512 1.98609 0)
(-0.00706758 2.16917 -1.23247e-20)
(-0.0151999 1.92594 7.28095e-21)
(0.337585 0.137801 -3.53756e-19)
(0.31769 0.0360073 -3.43791e-19)
(0.291933 0.140994 -1.05947e-18)
(0.251566 0.0661387 -6.8828e-19)
(0.229831 0.985961 0)
(0.272969 1.29514 -3.69831e-19)
(0.367578 1.23053 6.17173e-19)
(0.987424 0.00857714 0)
(0.941846 0.0058042 0)
(1.0003 0.000581766 0)
(1.00286 0.00931044 0)
(1.00301 0.00847394 -2.74874e-18)
(0.991906 0.00969503 2.07575e-18)
(-0.0147313 0.756231 0)
(0.00937536 0.433792 0)
(-0.0542354 1.00778 0)
(-0.032428 0.80741 0)
(0.00181261 0.436707 0)
(-0.0917586 0.0828593 2.07647e-19)
(0.0372796 0.0547387 0)
(0.993556 -0.00836823 0)
(0.954475 -0.00653442 0)
(0.743707 0.0297807 0)
(0.678291 0.0281284 0)
(0.660752 0.0258327 0)
(0.972928 -0.00707439 0)
(0.586504 0.0738602 0)
(0.457229 -0.00256006 1.54319e-18)
(-0.037132 2.86163 6.53739e-19)
(0.04082 2.91035 0)
(0.0536778 2.8862 0)
(-0.0046528 2.70141 0)
(-0.0131785 2.98513 8.4497e-19)
(-0.0178203 2.89494 0)
(-0.015453 2.98804 -2.62242e-18)
(-0.0132319 2.92516 8.98379e-19)
(-0.0360399 1.35265 0)
(-0.00730754 1.38367 0)
(-0.00726428 2.1338 5.87896e-22)
(-0.00622801 2.09548 0)
(-0.0233663 1.90487 0)
(0.938712 -0.00735221 0)
(0.857677 -0.00997125 0)
(0.862724 0.00542837 0)
(0.949678 -0.00778527 0)
(0.884145 -0.0082001 0)
(0.51205 1.12255 -2.28661e-19)
(0.561265 1.17349 0)
(0.365838 0.874973 3.37124e-20)
(0.308836 0.733792 0)
(0.923007 1.06478 -1.55678e-19)
(1.0426 0.874718 3.18258e-19)
(0.360539 1.3575 0)
(0.528966 1.32905 0)
(0.550274 1.26756 0)
(0.12159 0.18496 -3.03342e-19)
(0.159831 0.114104 0)
(0.171813 0.0986171 1.89332e-19)
(1.01326 0.928888 0)
(1.08776 0.782349 0)
(1.11313 0.724105 -2.5456e-19)
(1.14647 0.626053 0)
(1.19648 0.409002 5.78768e-20)
(0.957814 -0.00868115 0)
(0.962546 -0.0100194 0)
(0.90181 -0.00798808 0)
(0.984213 -0.00913901 0)
(0.974729 -0.00932083 0)
(0.937155 -0.00637503 0)
(1.00019 0.0023413 0)
(1.0009 0.00141778 0)
(0.999909 0.000856176 0)
(0.0355551 2.0722 4.25963e-19)
(0.118496 1.76946 0)
(0.018199 2.18568 6.53872e-19)
(0.0459438 1.88066 -5.4427e-19)
(0.106955 1.14987 -2.60276e-19)
(0.0496709 1.02809 0)
(0.143211 0.982297 0)
(0.00904019 0.845758 0)
(0.0205237 0.592964 0)
(-0.000885381 2.24183 -7.63358e-22)
(0.0161096 2.01996 0)
(-0.00180619 2.24458 -2.49031e-20)
(0.00838717 2.02577 3.6509e-20)
(0.00586714 0.816186 0)
(0.00367067 0.79327 0)
(0.0154425 0.540326 0)
(-0.00925199 0.753288 0)
(0.00596635 0.441269 0)
(0.938905 0.0098746 0)
(0.851044 -0.0146046 0)
(0.927946 0.000500662 0)
(0.842925 -0.0128708 0)
(0.809666 0.000482038 0)
(0.899204 0.0209663 0)
(0.875345 0.0242443 0)
(0.783351 0.000758192 0)
(0.00555455 3.06476 -8.39153e-21)
(0.0166536 3.05769 0)
(0.0145983 2.969 0)
(0.00864634 2.87623 0)
(0.918203 3.94765 0)
(1.23082 3.28158 9.2293e-19)
(0.0684302 3.06781 0)
(-0.0298994 2.90138 0)
(-0.0112306 1.40687 0)
(-0.0334188 1.70065 0)
(-0.019838 1.53855 0)
(-0.0310283 2.545 -9.2627e-21)
(-0.01559 2.23874 0)
(-0.0211111 2.38516 0)
(-0.00109669 1.95334 7.30718e-22)
(-0.00368849 2.24055 -1.18341e-20)
(-0.00553167 2.20425 -7.58989e-21)
(-0.00901034 1.93793 0)
(0.388017 0.121566 5.40766e-19)
(0.366918 0.0221833 -5.30636e-19)
(0.258316 1.58517 0)
(0.278268 0.759177 -3.15746e-19)
(0.176798 1.67247 -1.0464e-18)
(0.225639 1.2215 1.04866e-18)
(0.901926 0.00614188 0)
(0.967331 0.011229 0)
(0.974514 0.0108359 0)
(0.923255 0.00631845 0)
(-0.0110125 0.749547 0)
(-0.0132803 0.748388 0)
(0.00760482 0.430077 0)
(0.0784805 0.0638534 5.8642e-19)
(0.0744206 0.0380966 -6.89384e-19)
(0.0372708 0.0380752 0)
(1.10213 0.0872001 2.69999e-20)
(1.08413 0.040053 0)
(1.01527 0.0404717 0)
(0.908703 -0.0049919 0)
(0.441126 0.103431 0)
(0.500653 0.0872753 -2.46662e-18)
(0.410593 0.0159507 9.22756e-19)
(0.00854792 2.98028 7.03789e-19)
(-0.0332165 2.86452 4.50316e-20)
(0.00362188 3.05032 -1.7783e-20)
(0.0202048 3.04328 6.32376e-19)
(-0.0149727 2.99658 2.95203e-20)
(-0.0129621 2.94948 -1.18738e-22)
(-0.0172764 3.0119 -5.46665e-19)
(0.0149479 3.02356 3.96252e-19)
(0.00745826 3.03696 -6.27411e-19)
(0.934253 -0.00114796 0)
(0.939643 -0.00314839 0)
(0.846255 -0.00945759 0)
(0.956379 0.012137 0)
(0.94237 0.0135925 0)
(0.881367 0.00553254 0)
(0.916213 0.0176309 0)
(0.925385 0.0154793 0)
(0.837326 0.00244681 0)
(0.714312 1.39914 3.7556e-20)
(0.747596 1.50765 0)
(0.179683 0.312073 7.06282e-20)
(0.230089 0.669068 5.67696e-19)
(0.262049 0.718458 -3.31756e-19)
(0.261596 0.516452 6.60552e-19)
(0.347297 0.813334 1.59604e-18)
(0.141372 0.231117 3.76601e-19)
(0.248606 0.143209 7.28065e-19)
(0.209331 0.134175 1.88544e-19)
(0.214674 0.0775387 3.57077e-19)
(1.18538 0.467142 6.79362e-20)
(1.19998 0.258745 6.2897e-20)
(0.0103966 2.23444 2.51048e-19)
(0.0403143 1.94905 0)
(0.971879 0.0296747 0)
(0.944107 0.0140902 0)
(0.870166 -0.0177215 0)
(0.0114206 3.0744 0)
(0.019688 2.94406 1.15493e-18)
(0.0163936 2.95638 0)
(0.00636281 2.8506 -1.1459e-18)
(0.00621945 3.09088 2.80026e-19)
(0.00711675 3.08235 0)
(0.780232 1.80864 -1.57451e-19)
(1.23859 2.48324 3.98791e-19)
(0.762164 1.94785 -1.22187e-18)
(0.0195859 2.98051 -6.04492e-19)
(0.0346754 2.99854 0)
(-0.0347405 2.87628 0)
(-0.00399777 2.22421 -1.31814e-20)
(-0.00322054 2.24511 2.02334e-20)
(0.00165037 1.98813 -7.2609e-21)
(0.278303 1.39489 1.02449e-18)
(0.240163 0.555051 -7.0239e-19)
(0.0637085 1.99716 7.60049e-19)
(0.134992 1.88346 -9.07919e-19)
(0.180038 1.51261 9.52969e-20)
(0.00196936 3.11909 -1.7381e-18)
(0.0130261 3.11898 1.88627e-18)
(-0.00910753 2.98109 7.7423e-19)
(-0.00438921 2.97738 -7.28831e-19)
(-0.0209735 2.88066 -7.88539e-19)
(0.00847564 3.1003 -2.08166e-18)
(0.00219055 3.10501 2.05765e-18)
(0.28345 0.696131 0)
(0.249307 0.684514 -1.18265e-18)
(0.0958076 0.224673 5.25018e-19)
(0.358538 0.940835 1.11486e-18)
(0.196417 0.277449 -1.71896e-18)
(1.19016 0.176409 6.20989e-20)
(1.20028 0.313728 0)
(1.17855 0.123708 -4.92417e-21)
(0.00163926 2.25333 -1.42137e-21)
(0.0050732 2.24454 0)
(0.0246822 1.98502 0)
(0.33983 1.30396 -3.67717e-19)
(0.375408 1.1526 -8.00371e-19)
(0.211175 0.379943 1.42772e-18)
(1.00588 -0.0108223 0)
(1.00767 -0.00763018 5.07047e-19)
(-0.030552 1.33369 0)
(-0.0433385 1.33459 0)
(1.00221 0.0035171 1.81295e-21)
(1.00367 0.00947474 1.03538e-18)
(-0.0194774 2.52994 1.17403e-20)
(-0.024528 2.57261 0)
(0.0333035 3.17625 3.97522e-19)
(0.38869 3.48091 0)
(1.17918 0.668321 -5.54661e-20)
(1.01283 0.0131473 -2.12882e-21)
(1.02137 -0.0102629 0)
(1.0017 0.000136346 8.06124e-23)
(0.112986 1.37237 0)
(0.143227 2.56493 0)
(0.035547 1.31552 0)
(0.000459192 2.61677 2.44568e-20)
(-0.0210025 2.57405 -1.13359e-21)
(0.999618 0.031121 2.53715e-21)
(1.06335 0.00493764 0)
(1.09801 0.0255802 0)
(-0.0317172 1.74417 0)
(-0.0189488 2.57431 0)
(-0.00821217 1.32312 0)
(0.311598 1.48508 -1.68367e-19)
(1.01131 -0.00960677 0)
(1.0094 -0.014914 0)
(1.00237 0.000761861 6.48037e-19)
(1.00547 -0.00479346 -7.61633e-19)
(1.00118 -0.000963841 0)
(-0.0192246 1.47421 0)
(-0.00815563 1.38728 0)
(-0.0111221 1.43201 0)
(-0.0125062 1.30972 0)
(-0.0256369 1.29669 0)
(-0.0160851 1.28141 0)
(1.03511 -0.00599974 0)
(1.01971 0.0160225 -9.28758e-22)
(0.82505 1.27766 2.6313e-19)
(1.00223 0.000328695 -6.45466e-19)
(1.00406 0.00526685 7.55778e-19)
(1.00118 0.00207979 0)
(1.01269 0.0103973 6.42518e-19)
(1.00797 0.0083208 -7.78526e-19)
(1.00856 0.0146827 0)
(-0.0240578 2.60155 0)
(-0.0261986 2.5805 -2.21422e-20)
(-0.0234151 2.59491 1.57174e-20)
(1.23988 0.270213 5.77934e-19)
(1.164 0.0879328 0)
(0.0385119 3.07815 -8.93462e-19)
(0.064911 2.85677 -6.49328e-20)
(0.136879 3.19151 1.36836e-18)
(0.131898 3.21906 -1.90359e-19)
(0.131597 3.22913 0)
(0.019259 3.13734 2.30376e-19)
(0.073432 3.15953 8.80914e-19)
(0.0661927 3.18463 -4.34347e-19)
(0.0217903 3.12978 0)
(0.551285 0.28166 0)
(0.486664 0.300727 0)
(1.15161 0.704709 1.24286e-19)
(1.1445 0.826293 -1.05864e-19)
(1.20702 0.591203 0)
(1.23415 0.52466 0)
(1.01599 0.0134028 -1.19757e-18)
(1.01494 0.0142618 1.50355e-18)
(1.02542 -0.00978167 0)
(1.02349 -0.0118297 0)
(1.00642 0.00266491 0)
(1.01042 0.00377081 0)
(1.00458 0.00187837 0)
(1.00978 0.00627442 0)
(1.0078 0.00597192 0)
(1.00451 0.00473762 0)
(0.101583 1.37092 0)
(0.098604 1.33284 0)
(0.131969 1.40741 0)
(0.150208 1.41183 0)
(0.145307 2.59012 0)
(0.184781 2.66081 -4.21694e-19)
(0.10165 2.64505 0)
(0.0853821 2.64813 1.96716e-19)
(0.0391651 2.67128 -1.44579e-19)
(0.0224994 1.33195 0)
(0.0327928 1.24863 0)
(0.0249834 1.342 0)
(0.0467595 1.26963 0)
(0.00468439 1.9815 7.46697e-21)
(-0.0198984 2.60178 -2.48354e-20)
(-0.00755789 2.65809 7.96803e-21)
(-0.0175502 2.67778 0)
(-0.0230235 2.60742 7.87043e-21)
(-0.0231364 2.60241 2.0918e-20)
(0.0134066 1.9795 -2.04735e-21)
(-0.00735347 2.38834 3.33176e-20)
(-0.0127001 2.41147 -9.0369e-21)
(1.012 0.039937 1.21207e-18)
(1.00532 0.0212085 -1.50903e-18)
(1.00415 0.0471955 -1.23498e-18)
(0.978674 0.0380075 1.55426e-18)
(1.06454 0.00873832 0)
(1.04962 -0.00810614 0)
(1.09513 0.0356158 0)
(1.07474 0.0133135 0)
(1.07253 0.00105357 0)
(1.14106 0.0847529 0)
(1.11262 0.0454562 0)
(1.11684 0.03311 0)
(-0.0266318 2.42416 1.68556e-21)
(-0.0165452 2.01296 0)
(-0.0186015 2.21226 0)
(-0.0208106 2.59495 -1.38589e-20)
(-0.0178727 2.60524 3.06287e-22)
(0.000705902 1.58681 -4.2483e-20)
(-0.0100737 1.51435 4.33117e-20)
(-0.0193468 1.40351 0)
(-0.0230163 1.41037 0)
(-0.0303523 1.4047 0)
(-0.00454263 1.32465 0)
(0.0116212 1.24315 0)
(0.387875 1.50256 2.74128e-19)
(0.431237 1.50313 1.45432e-19)
(0.596947 2.44081 -2.4048e-19)
(0.397254 2.53827 7.06943e-19)
(0.348509 2.04776 7.1754e-20)
(1.0211 -0.0080853 0)
(1.01552 -0.00972881 0)
(1.01493 -0.0154966 0)
(1.0074 -0.00104535 0)
(1.00493 -0.000899492 0)
(1.00779 -0.00466755 0)
(1.00928 -0.00357799 0)
(1.01424 -0.00433826 0)
(1.02042 0.0166149 1.1734e-18)
(1.01751 0.0157182 -1.50246e-18)
(1.02073 0.0189148 -1.18304e-18)
(1.01807 0.0174128 1.48236e-18)
(0.788275 1.32796 0)
(0.723424 1.3793 2.48468e-19)
(0.901436 1.22818 1.00345e-19)
(0.947259 1.174 -1.33547e-19)
(1.15252 2.59474 2.84181e-19)
(0.763894 0.123691 6.00852e-19)
(1.1646 0.110868 0)
(1.2144 0.196854 -4.65296e-19)
(1.20199 0.156998 -1.98469e-20)
(1.00582 0.159142 0)
(0.125457 2.95912 5.2048e-19)
(0.101313 2.86454 -1.1323e-18)
(0.00654355 2.37822 7.53646e-19)
(0.108942 -0.182885 -3.05597e-19)
(0.333732 3.4114 -2.1846e-19)
(0.189192 3.30696 0)
(0.233591 3.34659 2.84515e-19)
(0.23653 3.03084 -1.74865e-18)
(0.329387 3.18842 0)
(0.00694238 3.1209 4.51135e-20)
(0.0162412 3.12977 -5.32194e-19)
(0.0149796 3.12586 7.83294e-19)
(0.0346449 3.13963 0)
(0.0329788 3.15013 0)
(1.20676 2.59165 0)
(0.550778 0.796447 -5.26281e-19)
(1.07096 0.99892 -1.19205e-20)
(1.00669 1.08297 0)
(0.860448 0.977555 -1.08687e-19)
(1.09805 0.899859 2.78403e-20)
(0.275123 0.304609 -8.10501e-19)
(0.638455 0.326513 -1.60057e-20)
(0.520582 0.22022 4.05205e-19)
(0.507591 0.337534 2.88917e-20)
(0.3919 0.26411 -1.15721e-18)
(0.591056 0.326634 0)
(0.708943 0.433329 6.60387e-19)
(0.705724 0.433575 0)
(0.549591 0.342216 0)
(0.455879 0.238854 0)
(0.833382 0.631573 4.05571e-19)
(1.24135 0.292732 -4.85944e-19)
(1.2421 0.432573 0)
(1.25011 0.37258 0)
(0.670232 0.195111 6.2175e-19)
(0.877644 0.562713 -3.69869e-19)
(0.777481 0.541063 6.60621e-19)
(0.963569 0.453059 -7.31667e-19)
(1.01916 0.0150554 8.05814e-19)
(1.01749 0.0144061 -8.09618e-19)
(1.0158 0.0153831 0)
(1.03658 -0.0055392 0)
(1.02998 -0.00832898 -7.58458e-19)
(1.02803 -0.011927 7.50921e-19)
(1.02491 0.0107317 0)
(1.02338 0.0145386 0)
(1.01142 0.00420152 0)
(1.01417 0.00921617 0)
(1.01517 0.00423617 0)
(1.01428 0.00294193 0)
(0.0725108 1.3543 0)
(0.0798657 1.29913 0)
(0.148703 1.3889 7.96469e-21)
(0.282267 1.48345 8.95503e-20)
(0.17732 1.45418 1.88332e-19)
(0.209816 1.4594 -3.07086e-19)
(0.177666 1.41439 0)
(0.136208 1.59983 -7.05865e-20)
(0.120198 1.57951 0)
(0.344281 1.99649 -1.04342e-19)
(0.340848 2.33393 6.12765e-19)
(0.196417 1.46663 6.15335e-20)
(0.269679 1.40047 2.33496e-20)
(0.202894 1.39347 -1.88523e-20)
(0.279639 1.34332 -1.04458e-19)
(0.24293 1.57839 0)
(0.269646 1.61494 1.13226e-19)
(0.0312852 2.25446 -2.83735e-20)
(0.0441602 2.66029 0)
(0.0668631 2.39078 1.3508e-19)
(0.0635784 2.41141 0)
(0.0699226 2.6617 -2.1801e-19)
(0.0496123 2.69059 0)
(0.030318 1.45062 3.85345e-20)
(0.0369832 1.49743 0)
(0.0349009 1.41511 0)
(0.0304263 1.42181 -4.34859e-20)
(0.00127443 2.64422 -1.66074e-20)
(0.0302441 2.68967 1.61881e-19)
(0.0109788 2.71503 1.13355e-21)
(0.00615794 1.84052 -1.02354e-20)
(-0.000538698 1.69467 -5.66741e-21)
(0.0190787 1.30931 0)
(0.0292539 1.22484 0)
(0.0462934 1.59682 -3.07563e-20)
(0.0358693 1.47695 -3.68746e-20)
(0.0395777 1.53989 4.60901e-20)
(0.0412866 1.62014 0)
(-0.0305545 2.26603 1.08236e-19)
(-0.0315774 2.54187 -4.50748e-20)
(-0.0174408 2.44042 5.47288e-21)
(-0.00171134 1.85596 1.2403e-20)
(-0.0261103 2.49301 5.11523e-21)
(-0.0203182 2.43758 -9.68286e-21)
(1.01896 0.0223004 -8.04283e-19)
(1.01563 0.0286402 8.07314e-19)
(1.01267 0.0183575 0)
(1.0091 0.0714568 1.1316e-18)
(0.991684 0.0619564 -1.26322e-18)
(0.951007 0.0564357 1.41241e-18)
(1.01298 0.11206 -1.50589e-19)
(1.04303 -0.00550514 0)
(1.0515 -0.00105992 7.23125e-19)
(1.03934 -0.00966804 -7.24614e-19)
(1.07235 0.0433273 -4.30067e-20)
(1.06524 0.0244502 3.70917e-19)
(1.06306 0.0576338 0)
(1.0542 0.0510983 -1.33442e-19)
(1.03212 0.0423692 0)
(1.02668 0.0385849 0)
(1.02795 0.013922 0)
(1.02396 0.0166633 0)
(1.0402 0.0333242 2.74822e-19)
(1.03883 0.0270898 -6.0761e-19)
(1.05148 0.0349562 -2.91232e-19)
(1.04831 0.0350755 -3.20776e-19)
(1.0718 0.0660333 6.26e-19)
(1.09738 0.0538393 0)
(1.10695 0.0983051 0)
(-0.0264546 2.27058 5.97307e-20)
(-0.0262902 2.01911 1.54233e-21)
(-0.0223888 2.02653 0)
(-0.0274565 2.43861 -5.94501e-20)
(-0.0228777 2.39488 -3.15371e-21)
(-0.0336805 2.4651 6.40107e-21)
(-0.0206963 2.61478 -1.84193e-20)
(-0.0236988 2.55622 5.53432e-22)
(-0.0223435 2.50844 -5.42979e-21)
(-0.0159857 2.60835 1.38985e-20)
(-0.0209297 2.61052 -1.5367e-20)
(-0.00798298 1.51476 -1.03858e-21)
(0.00119261 1.63377 -4.21318e-20)
(0.372988 1.45148 -1.1564e-19)
(0.37304 1.38425 3.84703e-20)
(0.664117 1.42903 -2.40331e-19)
(0.530275 1.49588 -1.42779e-19)
(0.588285 1.46194 0)
(0.592644 2.41798 2.06952e-19)
(0.661266 2.41408 3.37595e-19)
(0.410674 2.50719 8.82055e-20)
(0.401914 2.5311 -6.07276e-19)
(0.509534 2.47157 6.13922e-19)
(0.552747 2.45462 0)
(0.48718 2.51263 -5.58699e-19)
(0.24795 2.58455 1.13962e-18)
(0.354295 2.55656 -7.69346e-20)
(0.283433 2.64629 -1.58249e-18)
(0.948031 2.37062 7.30049e-19)
(0.837831 2.37644 0)
(1.01109 0.000556839 2.62895e-20)
(1.01538 -0.0053367 -2.13236e-20)
(1.01769 -0.00343472 -3.89453e-19)
(1.01506 -0.000794529 3.91576e-19)
(1.01248 0.00130836 0)
(0.651558 1.29297 0)
(0.675849 1.18671 0)
(0.790299 1.1063 0)
(0.669025 1.15008 0)
(1.18268 2.60819 6.01874e-20)
(1.07057 2.35562 0)
(0.832018 2.15654 3.89755e-21)
(0.822576 2.42399 0)
(0.920871 2.51833 -4.24757e-19)
(0.956027 2.47448 2.82506e-19)
(0.795622 0.184104 0)
(0.736008 0.157029 1.63016e-19)
(0.905458 0.153263 9.4967e-19)
(0.821394 0.156274 -3.55169e-19)
(0.774984 0.0904539 -1.09833e-18)
(1.08316 0.244104 -8.92074e-19)
(0.999865 0.308576 -1.80855e-20)
(0.926684 0.312678 8.59388e-19)
(1.00658 0.237836 7.22383e-19)
(0.947287 0.201697 -1.25603e-18)
(0.908381 0.206252 1.57138e-19)
(0.9464 0.273865 -3.33254e-19)
(0.924391 0.232625 0)
(0.995746 0.198338 6.19311e-19)
(1.0471 0.196807 0)
(1.04502 0.225518 0)
(1.1082 0.122841 2.90052e-19)
(1.07212 0.183137 -1.52141e-20)
(1.07652 0.244028 -1.57827e-19)
(1.10196 0.209681 0)
(1.021 0.0468209 6.19895e-19)
(1.04003 0.0600362 7.73515e-19)
(1.03367 0.0453235 -6.16029e-19)
(1.04239 0.0680587 -5.1901e-19)
(1.0173 0.0763105 -7.97307e-19)
(0.983935 0.161441 0)
(0.988921 0.10666 0)
(0.96598 0.0771779 -5.02497e-19)
(0.903918 0.0982655 2.00068e-19)
(1.04034 0.108997 7.16967e-19)
(1.06945 0.126204 -8.36725e-19)
(1.07667 0.158873 7.47194e-19)
(1.03193 0.153649 0)
(1.07498 0.11348 0)
(1.05391 0.0941445 -3.42963e-19)
(1.04433 0.0998895 -5.84924e-19)
(0.578533 1.04917 1.42362e-19)
(0.601399 1.37102 -4.41893e-20)
(1.15268 2.72392 -2.31672e-19)
(1.21791 3.06658 3.13917e-21)
(1.2441 2.70681 -1.28601e-19)
(1.27195 2.68969 -2.87571e-20)
(1.19878 2.32957 -1.13327e-20)
(1.20576 2.97029 -9.76423e-20)
(1.22625 2.93589 2.40728e-19)
(1.20764 3.21899 -1.40669e-19)
(1.36665 2.94921 1.94306e-19)
(1.35443 2.86705 0)
(0.572068 0.80633 -5.07493e-20)
(0.0978254 1.213 5.65377e-19)
(0.566943 0.319048 5.33306e-19)
(0.402775 0.0633176 5.72097e-19)
(0.44702 0.308948 6.56782e-19)
(0.544729 0.425495 -1.07031e-18)
(0.54851 0.419374 8.76344e-19)
(0.447994 0.283584 -3.31445e-19)
(0.297426 0.211487 7.42279e-19)
(0.699543 0.272178 -3.59535e-19)
(0.654218 0.294191 0)
(0.582815 0.208391 6.14026e-21)
(0.744534 0.515828 3.57712e-19)
(0.728094 0.487597 -1.30021e-18)
(0.62424 0.449344 8.98369e-21)
(0.614847 0.439326 0)
(0.699432 0.719122 3.95106e-19)
(0.861887 0.783788 3.90963e-19)
(0.786391 0.86664 -4.57621e-19)
(0.907418 0.821186 -1.5236e-19)
(0.938512 0.866373 -3.65752e-20)
(0.945501 0.866074 3.74554e-20)
(0.872633 0.666573 -6.72012e-19)
(0.952468 0.718881 1.4146e-19)
(1.01272 0.733521 0)
(1.00335 0.709754 -1.91015e-19)
(1.02982 0.349412 2.11176e-19)
(1.15141 0.309569 2.86422e-19)
(1.07127 0.281854 3.64564e-19)
(1.02063 0.382415 -4.29745e-19)
(1.06975 0.444692 0)
(1.12631 0.424514 0)
(0.92085 0.386019 1.23426e-21)
(0.835622 0.320453 0)
(0.88605 0.319462 4.06204e-19)
(0.909852 0.320937 -8.44075e-21)
(0.958787 0.456857 2.03774e-18)
(0.920615 0.512568 5.22811e-19)
(0.924561 0.479253 -5.58355e-19)
(0.838008 0.467777 5.99831e-19)
(0.822405 0.463196 3.59849e-19)
(0.791667 0.446547 -3.53208e-19)
(1.02744 -0.000138572 6.4879e-19)
(1.02006 0.000152668 0)
(1.01857 0.00107794 4.2306e-19)
(1.0218 -0.00144719 -9.58352e-19)
(1.0224 0.00462459 4.65564e-19)
(1.02032 0.0116874 -9.74937e-19)
(1.02122 0.0110793 0)
(1.02042 0.0113326 -2.0321e-19)
(1.01593 0.00794023 5.09789e-19)
(1.01657 0.0107504 -2.54428e-19)
(1.01728 0.0101069 1.87301e-19)
(0.0360849 1.33046 0)
(0.0433287 1.38644 0)
(0.0526837 1.33067 0)
(0.0603789 1.27652 0)
(0.0758105 1.40382 -4.94791e-20)
(0.0862331 1.36946 2.19749e-20)
(0.114035 1.549 -1.46129e-20)
(0.1079 1.39209 -4.69512e-21)
(0.0412171 1.48208 2.18249e-20)
(0.0449004 1.47574 -1.68026e-20)
(0.0688434 1.39119 -1.09625e-20)
(0.0614014 1.39191 4.68664e-20)
(0.0560192 1.36892 7.00993e-21)
(0.0464765 1.39308 4.15376e-21)
(0.107571 2.35813 -1.49224e-19)
(0.0962514 2.40714 0)
(0.16927 2.03211 1.08688e-19)
(0.114597 1.70251 3.99016e-20)
(0.234746 2.03019 -8.98066e-20)
(0.19892 2.42034 0)
(0.261719 2.37023 -6.06462e-19)
(0.301893 2.36792 4.28311e-19)
(0.228414 1.9897 -2.50348e-19)
(0.154829 2.14819 1.69728e-19)
(0.141351 2.2544 0)
(0.0191957 1.87692 9.91644e-21)
(0.00142343 2.38285 -2.70093e-20)
(0.00679054 2.14077 0)
(0.0120581 2.44707 -1.37002e-20)
(0.0297185 2.28957 6.85702e-21)
(0.0190668 1.43023 -8.40293e-21)
(0.0159966 1.41184 1.41129e-19)
(0.0145809 1.42033 -4.64698e-20)
(0.0239939 1.42622 -3.94185e-20)
(0.028223 1.45456 0)
(0.00990272 1.40409 0)
(0.00334775 1.30929 -6.30886e-20)
(0.00462727 1.39863 1.8286e-20)
(0.0113262 1.39605 0)
(0.0124037 1.29999 -4.72811e-20)
(0.0235406 1.21485 9.58568e-20)
(1.04085 0.0121435 0)
(1.0471 0.00843101 -6.78681e-20)
(1.03893 0.0227579 -4.89516e-19)
(1.04862 0.021412 0)
(1.05244 0.0211856 0)
(1.03656 0.0124222 -6.80561e-21)
(1.03124 0.0122776 7.86867e-19)
(1.03177 0.0173235 9.54121e-19)
(1.02564 0.0212793 0)
(1.0226 0.0218444 0)
(1.03539 0.0263218 4.88392e-19)
(1.02597 0.0280938 0)
(1.02408 0.0277324 0)
(-0.0184365 2.02349 0)
(-0.00179057 1.66332 -4.38996e-21)
(-0.00584648 1.76703 -3.24327e-20)
(-0.00355301 1.40508 0)
(-0.00707283 1.56873 -2.44342e-20)
(-0.0118696 1.48143 1.48515e-20)
(-0.0100861 1.42136 0)
(0.387886 1.63502 0)
(0.375974 1.30998 -7.57906e-20)
(0.300328 1.33954 0)
(0.427356 1.30865 1.14602e-20)
(0.478766 1.47357 0)
(0.458912 1.41773 2.33097e-20)
(1.03598 2.67037 -1.54307e-20)
(0.968246 2.39893 -9.17419e-19)
(0.921627 2.18822 1.02707e-18)
(0.851941 2.36823 2.4262e-19)
(0.847254 2.47937 0)
(0.916923 2.47541 0)
(0.931386 2.36414 0)
(0.910338 2.35395 -9.47633e-19)
(0.685736 2.44242 -3.96157e-19)
(0.799118 2.43178 -9.81563e-20)
(0.809351 2.40587 7.45327e-20)
(0.69505 2.38694 0)
(0.800385 2.38221 0)
(0.75838 2.3959 -3.69241e-19)
(0.76664 2.46917 0)
(0.637395 1.09454 0)
(0.479589 0.892404 -5.22212e-19)
(0.573962 0.941006 -3.29881e-20)
(0.518478 1.02754 0)
(0.518938 0.968112 7.8101e-19)
(0.806673 0.888685 -1.29254e-19)
(0.814422 1.02393 0)
(0.790038 0.990946 1.84086e-19)
(0.674764 1.03492 0)
(0.675563 0.93703 0)
(1.16213 2.74725 -2.32033e-19)
(1.13952 2.81069 -9.97637e-20)
(0.927141 2.32312 1.05176e-19)
(0.895159 2.30303 -8.44782e-20)
(1.12795 2.72024 0)
(1.08202 2.68956 1.01617e-19)
(1.08736 2.47343 -3.14524e-19)
(0.982008 2.2272 -3.01258e-20)
(0.490418 1.32313 0)
(0.506921 1.05608 -1.25451e-19)
(0.580019 1.1681 0)
(0.848976 0.25149 0)
(0.755859 0.200453 0)
(0.662504 0.154484 0)
(0.839577 0.252638 -6.32645e-19)
(0.725226 0.245698 3.74404e-19)
(0.922027 0.0914817 -4.12288e-19)
(0.924385 0.133442 0)
(0.912624 0.142245 1.7817e-19)
(0.848644 0.118467 7.12352e-19)
(0.812664 0.0792406 -4.46375e-19)
(1.15216 3.34363 -7.12634e-19)
(1.20168 3.26333 0)
(1.14966 3.37294 -1.48325e-18)
(0.638559 3.53493 1.25712e-18)
(0.858468 3.1047 6.81709e-20)
(0.524998 0.783693 6.08781e-19)
(0.421241 0.781365 0)
(0.296665 0.342812 -1.47429e-19)
(0.48391 0.648121 8.5394e-19)
(0.575574 0.328486 -1.89547e-19)
(0.518953 0.460996 2.27279e-19)
(0.676099 0.516973 4.82215e-19)
(0.722636 0.55896 0)
(0.672096 0.570232 0)
(0.640195 0.526942 0)
(1.0129 0.620289 8.67335e-20)
(0.926281 0.561937 -5.09194e-19)
(0.952255 0.59305 3.8289e-19)
(0.981077 0.533113 -3.94923e-19)
(1.09018 0.499633 0)
(1.09887 0.591266 -9.56648e-20)
(0.856811 0.419139 -8.28955e-19)
(0.854437 0.406694 -1.02799e-18)
(0.78543 0.401832 6.29446e-19)
(0.794526 0.390119 -6.4026e-19)
(0.842369 0.345469 -5.19579e-19)
(0.788185 0.34171 6.35091e-19)
(1.02678 0.0062042 -4.95602e-19)
(1.02647 0.00643538 1.00879e-18)
(1.02957 0.000330005 6.287e-19)
(1.03376 0.00123159 -7.5725e-19)
(1.03395 0.00936711 0)
(1.03022 0.0100529 -1.23197e-18)
(0.0642063 1.63846 1.85702e-20)
(0.0528077 1.59086 0)
(0.0912644 1.68764 1.25052e-19)
(0.0985029 1.6687 -1.10755e-19)
(0.0926933 1.54994 2.61259e-20)
(0.0919687 1.5516 0)
(0.0131511 1.69613 0)
(-0.00292677 1.51248 1.11094e-20)
(-0.0013435 1.45898 -9.98923e-21)
(-0.00847743 1.56553 5.29378e-21)
(0.00219114 1.8876 1.63524e-20)
(-0.00986349 1.94095 -4.13823e-21)
(0.496682 1.35234 -2.80965e-19)
(0.490418 1.35162 3.08881e-19)
(0.455182 1.3042 -3.39151e-20)
(0.436935 1.28071 7.92115e-21)
(0.643706 1.31137 0)
(0.557915 1.40209 1.04142e-19)
(0.574382 1.40897 -1.01389e-19)
(0.469511 1.29705 3.31199e-20)
(0.525123 1.24346 0)
(0.57643 1.20557 0)
(0.652775 2.40223 5.81942e-19)
(0.668465 2.44443 1.25953e-18)
(0.712827 2.45523 -8.67962e-19)
(0.608812 2.42917 -2.01815e-19)
(0.559378 2.51867 2.84064e-19)
(0.508708 2.49387 -7.57267e-19)
(0.977656 2.37063 -5.74921e-19)
(1.01118 2.38251 0)
(0.925196 2.16624 -6.58876e-19)
(1.05324 2.66857 0)
(1.0556 2.65515 0)
(0.592619 2.25029 -1.37102e-19)
(1.0335 3.14983 1.20216e-19)
(0.904798 3.02057 -2.21487e-20)
(0.256479 0.822366 0)
(0.279324 0.661162 -3.18234e-19)
(0.453282 0.623194 -3.21622e-19)
(0.372812 1.99362 0)
(0.458865 2.77627 -4.74583e-20)
(0.411207 2.53869 0)
(0.725629 0.669767 -8.33764e-19)
(0.809118 0.691988 1.11076e-18)
(0.828698 0.63259 -1.09712e-18)
(0.702036 0.634861 -1.06408e-19)
(0.756115 0.594911 -4.35077e-19)
(0.998213 2.74736 -9.14361e-20)
(1.04069 2.81077 -1.71358e-19)
(0.627326 2.10949 7.19852e-19)
(0.579007 1.67919 -5.12246e-19)
(0.691003 1.88194 -4.14374e-19)
(0.984957 2.43173 -1.13147e-19)
(0.992579 2.4248 3.01894e-19)
(0.644114 1.81311 2.87923e-20)
(0.436895 1.30138 1.46713e-19)
)
;

boundaryField
{
    wall-4
    {
        type            noSlip;
    }
    velocity-inlet-5
    {
        type            fixedValue;
        value           uniform (1 0 0);
    }
    velocity-inlet-6
    {
        type            fixedValue;
        value           uniform (0 3 0);
    }
    pressure-outlet-7
    {
        type            zeroGradient;
    }
    wall-8
    {
        type            noSlip;
    }
    frontAndBackPlanes
    {
        type            empty;
    }
}


// ************************************************************************* //
