/*--------------------------------*- C++ -*----------------------------------*\
| =========                 |                                                 |
| \\      /  F ield         | OpenFOAM: The Open Source CFD Toolbox           |
|  \\    /   O peration     | Version:  2206                                  |
|   \\  /    A nd           | Website:  www.openfoam.com                      |
|    \\/     M anipulation  |                                                 |
\*---------------------------------------------------------------------------*/
FoamFile
{
    version     2.0;
    format      ascii;
    arch        "LSB;label=32;scalar=64";
    class       volScalarField;
    location    "96";
    object      p;
}
// * * * * * * * * * * * * * * * * * * * * * * * * * * * * * * * * * * * * * //

dimensions      [0 2 -2 0 0 0 0];

internalField   nonuniform List<scalar> 
918
(
0.559811
1.16667
8.39663e-05
0.559281
-0.0126252
1.13363
-0.513169
0.652749
0.54002
-0.103373
-0.0546763
0.541945
0.994485
0.759693
-1.12437
-0.0137396
0.653044
-0.381165
0.539157
-0.0770019
0.673289
0.546551
0.549574
0.540151
0.599088
0.730885
0.87579
0.0328198
0.0140703
0.00835442
-0.0121338
-0.0388271
-0.0335367
1.01728
1.06836
1.09107
0.507729
0.335721
-0.37851
-0.453119
-0.438428
-0.536704
0.654442
0.655807
-0.216375
0.654131
0.651567
0.52702
0.539392
0.540307
0.541312
0.540304
0.541681
0.404849
-0.1046
-0.136137
-0.0842241
-0.0772124
0.0503694
-0.0533807
-0.0542212
-0.0542127
-0.0558818
0.456776
0.536454
0.533082
0.546184
0.555462
1.10621
1.07815
1.10429
1.01796
1.03443
0.972472
0.945095
0.780553
0.802839
0.745196
0.730416
-1.55141
-2.49408
-0.539338
-0.29129
-0.010905
-0.0120248
-0.00662618
0.650477
0.651727
0.653484
0.654834
1.08012
-0.37795
-0.481679
0.539303
0.538116
0.546416
0.547118
0.54314
0.542229
-0.0658875
-0.0625136
-0.0656434
-0.071597
-0.0696769
0.645207
0.652237
0.540677
0.537678
0.563156
0.583875
0.57353
0.279291
0.609807
0.625891
0.56775
0.724941
0.718723
0.727705
0.849484
0.813437
0.912581
0.935801
0.0201946
-0.000390885
-0.018014
-0.0211006
-0.0202696
0.503555
0.496086
0.523996
0.51117
0.51368
0.253481
0.121419
0.419929
0.444268
-0.298234
-0.366994
-0.430685
-0.46041
-0.568132
0.615787
0.656617
0.6537
-0.22558
-0.15349
-0.288753
-0.0800534
-0.143578
0.517264
0.524294
0.519283
0.534861
0.529322
0.531287
0.543671
0.540739
0.5423
0.466789
0.589968
0.331219
0.295478
-0.242474
-0.151264
-0.240531
-0.0671171
-0.0643834
0.0649822
0.0909933
0.0367117
0.0246214
-0.060368
-0.0560565
-0.0581016
-0.0557132
-0.0575876
0.449481
0.438193
0.469497
0.477075
0.523213
0.52463
0.529006
0.527084
0.895899
0.918363
0.925825
0.899468
-3.47444
-6.23899
0.0296373
0.164699
-0.00695861
-0.0101972
0.00184312
-0.00641139
-0.0006874
-0.00235082
-0.0116316
-0.0130975
-0.00802956
-0.00682113
0.645712
0.646214
1.0035
1.01176
0.977942
0.93122
0.527594
0.529626
0.535096
0.530998
-0.0584618
-0.0607073
-0.0591143
0.651513
0.649342
0.650775
0.240532
0.150136
0.330629
0.359983
0.639527
0.629008
0.638001
0.628602
0.664556
0.94326
0.9614
0.959633
0.967871
1.01186
1.02821
0.993649
0.482933
0.492951
0.487879
0.526813
0.524731
0.52557
0.522024
0.523002
0.521154
-0.0280339
-0.405207
0.490935
0.506845
0.493566
0.494918
0.696259
0.775337
0.654554
0.655345
0.654784
-0.00996271
-0.0686143
0.25042
0.215885
0.388658
0.425287
0.404097
0.867274
0.827209
0.877467
0.850769
0.811917
0.838373
-0.357001
-1.84656
-0.971052
0.51112
0.327361
0.414077
0.00608563
-0.0110002
-0.00616907
1.00426
1.07515
0.645662
0.821113
0.822991
0.698161
0.727045
0.78769
0.713491
0.74838
0.781914
0.759568
0.571088
0.50406
0.521153
0.844354
0.899941
0.119389
0.0566602
0.0129219
0.11038
0.168358
0.142051
1.03481
0.953172
1.02284
0.53744
0.538166
-0.00944404
-0.0273468
0.542434
0.542492
-0.0143333
-0.0039071
0.396462
-0.831721
0.0968294
0.531051
0.520871
0.538039
-0.0891315
0.356315
-0.0541381
0.0467288
-0.0122998
0.532378
0.467947
0.426931
-0.00408844
-0.0234138
-0.0656623
-0.210517
0.53511
0.533414
0.537506
0.538441
0.539126
-0.0232866
-0.0197163
-0.0126878
-0.0597176
-0.0521533
-0.0675464
0.501898
0.520974
-0.170241
0.537658
0.539797
0.539614
0.532903
0.53852
0.536782
-0.0142328
-0.0183292
-0.0208165
0.220068
0.353423
0.631333
0.715843
0.604072
0.383444
0.150892
0.53769
0.599146
0.507008
0.658092
0.651955
0.650334
0.16228
0.0112779
0.171788
0.113596
0.528906
0.527645
0.51912
0.516074
0.532906
0.531015
0.535584
0.532615
0.535569
0.536944
-0.0456652
-0.0717815
-0.0815869
-0.147746
0.311237
0.571428
0.256424
0.285472
0.141713
-0.0494128
-0.0509536
-0.0515314
-0.057981
0.000304681
-0.028093
0.0409765
0.0402993
0.0104541
-0.0150644
-0.010792
-0.02281
-0.0152258
0.525661
0.525551
0.530443
0.538998
0.477636
0.481414
0.446106
0.466996
0.45213
0.390505
0.426205
0.401281
-0.00909642
-0.00219153
-0.00568364
-0.0218699
-0.0181896
-0.0399232
-0.0375514
-0.031668
-0.0285602
-0.0361305
-0.0587556
-0.0625333
-0.168203
-0.284838
0.990052
0.90908
0.143579
0.524248
0.530714
0.52747
0.532413
0.535544
0.536337
0.534037
0.53058
0.521309
0.523009
0.519545
0.520485
-0.100585
-0.243255
-0.0713738
-0.147573
0.148941
0.630687
0.365327
0.300147
0.295691
0.525399
0.896769
0.678033
0.647218
0.636366
-0.347346
0.0354303
-0.286093
0.323276
0.158086
0.634672
0.681707
0.700902
0.650872
0.605102
-0.0943941
0.558643
-0.0759313
-0.0227842
0.17998
0.0538138
0.637748
0.640786
0.646609
0.642026
0.651114
0.642923
0.623761
0.6257
0.641943
0.648004
0.481187
0.25074
0.200902
0.162397
0.645236
0.515254
0.564064
0.490384
0.524132
0.526736
0.525414
0.506733
0.514329
0.509844
0.516429
0.519964
0.528609
0.529093
0.524338
0.526469
-0.0524363
-0.058227
-0.0226954
-0.13265
-0.12503
-0.188086
-0.0568006
0.0792502
0.0406835
0.24028
0.343847
0.0556928
-0.0538681
-0.0267504
0.0172925
0.183686
0.212211
0.0762003
0.162284
0.155574
0.135739
0.238675
0.241233
-0.0306445
-0.031189
-0.0353141
-0.0391176
0.0180876
0.0900078
0.0990519
-0.0116474
-0.0152536
-0.0492991
-0.0523231
-0.0208805
-0.0259108
-0.0216244
0.00629361
-0.0559465
-0.0239179
-0.0101988
-0.0120872
-0.0109482
-0.0158335
0.520344
0.522103
0.522324
0.531318
0.543484
0.558169
0.523701
0.499905
0.490662
0.493667
0.466571
0.476916
0.472719
0.486402
0.507674
0.516193
0.514525
0.51735
0.499675
0.501379
0.487883
0.491572
0.466578
0.44715
0.435078
-0.0465594
-0.00909022
-0.0171137
-0.0417656
-0.0127994
-0.0242247
-0.0153663
0.00379989
-0.0132506
-0.013869
-0.0237215
-0.032497
-0.0324968
-0.0697175
0.0182584
-0.183327
-0.217599
-0.291568
0.892727
1.01674
0.811171
0.584516
0.605783
0.848717
0.932519
0.544046
0.736804
0.759517
0.590035
0.858341
0.529102
0.528695
0.526295
0.525769
0.526991
-0.00393596
0.103752
0.0991773
0.164867
0.280727
0.391084
0.326042
0.200001
0.329479
0.331843
0.622794
0.634556
0.591297
0.615602
0.616593
0.427155
0.502816
0.554476
0.515497
0.567998
0.589811
0.543568
0.577037
0.525772
0.48095
0.477041
0.426854
0.446317
0.42181
0.405032
0.519732
0.496349
0.507271
0.497397
0.519511
0.545584
0.542712
0.565496
0.58052
0.500137
0.455269
0.464501
0.494704
0.456373
0.471844
0.487667
0.238826
0.141844
0.224515
-0.0594048
0.00765443
-0.00325823
-0.0527648
0.000463751
0.284106
-0.404461
-0.381618
-1.00509
0.509294
0.939251
0.555068
0.53418
0.650846
0.639278
0.64353
0.660069
0.653666
0.633585
0.641447
0.646207
0.591294
0.612649
0.626727
0.624176
0.526484
0.381003
0.381026
0.328273
0.198289
0.238778
0.434155
0.358718
0.283849
0.283899
0.458308
0.344361
0.415181
0.447527
0.378513
0.333121
0.536882
0.602641
0.595693
0.569838
0.478981
0.490404
0.515565
0.549131
0.572477
0.607245
0.515835
0.521794
0.523021
0.520493
0.517759
0.520856
0.52111
0.523686
0.524307
0.527323
0.526388
-0.0498058
-0.0364449
-0.0468244
-0.0581741
-0.0144147
-0.0169539
0.0264463
0.0137867
-0.0136389
-0.00912204
-0.0298208
-0.0339826
-0.031231
-0.0240074
0.106012
0.118401
0.102716
0.0633939
0.255025
0.383806
0.458323
0.333512
0.228423
0.252165
0.270303
-0.0109629
0.0132308
0.000848268
0.0406069
0.0334131
-0.0413485
-0.0462684
-0.0439868
-0.0330081
-0.0248209
-0.0473424
-0.0561663
-0.0445816
-0.0486192
-0.0512951
-0.0579329
0.502186
0.495676
0.497271
0.491228
0.489938
0.504141
0.508443
0.510448
0.515987
0.518224
0.508279
0.513706
0.517651
-0.0174125
-0.0410447
-0.0435247
-0.0384661
-0.0386914
-0.0369671
-0.0397015
0.129902
0.0615363
0.0649431
0.0163308
-0.118295
-0.0595712
0.495872
0.493346
0.481273
0.724872
0.574413
0.495194
0.591628
0.697558
0.283277
0.477074
0.313467
0.891304
0.788615
0.934629
0.546108
0.251917
0.419002
0.457136
0.274162
0.352561
0.325114
0.2153
0.245522
0.286326
0.383189
0.27067
0.249035
0.00558686
0.196095
0.305761
0.28793
0.410494
0.469885
0.273168
0.192305
0.147344
0.607059
0.626313
0.639562
0.611958
0.634599
0.584087
0.575922
0.591402
0.599702
0.593153
-0.734521
-0.440723
-1.38912
-0.718236
-0.259959
0.539299
0.51637
0.772938
0.642662
0.667839
0.652874
0.617251
0.589029
0.614225
0.634121
0.339685
0.45065
0.425441
0.432123
0.334885
0.264423
0.564012
0.561701
0.595368
0.619329
0.590216
0.620999
0.513641
0.51336
0.512825
0.509063
0.507326
0.509669
0.0612635
0.0285736
0.070211
0.0527426
0.0305187
0.0185334
-0.0191851
-0.0296172
-0.035305
-0.0340464
-0.0194708
-0.0158016
0.177391
0.113313
0.0345974
0.0629403
0.00167095
-0.0672174
-0.0869764
0.0202406
0.117064
0.107219
0.410648
0.658389
0.479001
0.645821
0.489213
0.544639
0.469604
0.460537
0.484556
0.383229
0.463902
0.263059
-0.246251
-0.15656
0.797827
0.807955
0.582039
0.411919
0.177772
0.35036
0.540799
0.469462
0.504181
0.572451
0.558875
0.0401052
0.0938751
0.392325
0.61918
0.24744
0.237856
0.231489
0.419427
0.335837
)
;

boundaryField
{
    wall-4
    {
        type            zeroGradient;
    }
    velocity-inlet-5
    {
        type            zeroGradient;
    }
    velocity-inlet-6
    {
        type            zeroGradient;
    }
    pressure-outlet-7
    {
        type            fixedValue;
        value           uniform 0;
    }
    wall-8
    {
        type            zeroGradient;
    }
    frontAndBackPlanes
    {
        type            empty;
    }
}


// ************************************************************************* //
