/*--------------------------------*- C++ -*----------------------------------*\
| =========                 |                                                 |
| \\      /  F ield         | OpenFOAM: The Open Source CFD Toolbox           |
|  \\    /   O peration     | Version:  2206                                  |
|   \\  /    A nd           | Website:  www.openfoam.com                      |
|    \\/     M anipulation  |                                                 |
\*---------------------------------------------------------------------------*/
FoamFile
{
    version     2.0;
    format      ascii;
    arch        "LSB;label=32;scalar=64";
    class       surfaceScalarField;
    location    "96";
    object      phi;
}
// * * * * * * * * * * * * * * * * * * * * * * * * * * * * * * * * * * * * * //

dimensions      [0 3 -1 0 0 0 0];

oriented        oriented;

internalField   nonuniform List<scalar> 
1300
(
3.75095
5.62643
-3.25924
3.75095
-7.75558
5.62643
-4.41633
4.41633
-0.351439
0.351439
1.87638
1.87457
-2.69872
2.69872
-2.02458
2.02458
-2.52136
2.52136
-5.24641
5.24641
-5.06852
5.06852
4.64822
-4.64822
-6.31859
6.31859
-0.935807
0.935807
-3.6995
3.6995
3.16957
-3.16957
-1.90497
1.90497
0.0915171
-0.0915171
-0.553467
4.30442
3.19749
3.19749
-2.00599
2.00599
-4.87004
4.87004
6.21797
-6.21797
5.23732
-5.23732
-1.97809
-2.49452
1.80118
-11.4601
-5.9544
-5.9544
-8.44038
8.44038
-2.81395
2.81248
2.94647
-2.94647
-1.76115
1.76115
-4.38002
-0.0363088
-4.38002
4.38491
0.0314134
4.38491
-0.455607
0.104168
-0.455607
4.01951
-4.01951
0.245698
0.105742
0.245698
3.06541
-3.06541
-1.87712
3.75351
1.87383
-1.8719
6.17633
-1.87905
3.75362
-6.00982
6.00982
-2.94543
0.246708
-2.94543
2.48546
0.213258
2.48546
-6.85009
6.85009
-2.08358
0.0589981
-2.08358
1.97099
0.0535872
1.97099
2.88226
-2.88226
-2.62756
0.106206
-2.62756
2.39246
0.128898
2.39246
0.353511
5.27292
-5.97994
8.79242
-5.27292
0.0265088
5.20834
0.038072
5.20834
-5.10584
0.0373222
-5.10584
5.01369
0.0548257
5.01369
4.73011
-0.0818818
4.73011
-4.76854
0.120318
-4.76854
-3.36879
-4.05605
-6.46882
0.150238
-6.46882
-1.02512
0.089311
-1.02512
0.823185
0.112622
0.823185
-3.68658
3.68658
-4.12248
0.422981
-4.12248
3.12394
0.0456307
3.12394
1.86849
1.88247
5.61944
-5.61944
2.44987
-1.87586
-0.0291171
-1.87586
-1.9829
-3.25442
1.9829
-0.0779277
-0.156751
0.248268
-0.156751
3.15945
0.0380318
3.15945
2.23516
0.157302
-2.23516
0.229168
3.28145
-3.28145
1.33431
0.671682
1.33431
-5.5644
5.5644
4.9567
0.0569885
-4.9567
0.0866629
6.15599
0.0619874
6.15599
-6.19953
-0.0184402
-6.19953
2.52867
-5.02319
-2.66258
6.13664
0.181942
-6.13664
0.182243
2.91847
0.0279978
2.91847
-2.91773
2.91773
-2.98488
0.0384066
-2.98488
-2.16014
0.398991
-2.16014
1.46298
0.298169
1.46298
-4.2824
-0.09762
-4.2824
-4.27378
0.151297
4.27378
0.111132
1.12728
-1.12728
-0.587917
0.13231
-0.587917
-4.14619
-0.13621
4.14619
-0.126681
-3.90579
-0.113715
-3.90579
-3.02464
0.0397651
3.02464
0.0407649
3.11291
0.046541
-3.11291
0.0475075
-1.87081
3.75328
-1.88014
3.75397
-5.63073
-0.379086
-5.63073
6.32074
-0.310922
6.32074
3.34048
0.35902
-3.34048
0.395055
2.31357
0.171891
2.31357
-6.81042
-0.0396642
-6.81042
6.83705
0.0130342
6.83705
2.1806
0.132966
-2.1806
0.0970267
1.92425
0.0467449
1.92425
2.90304
-0.0207751
2.90304
-2.87609
-0.00617479
-2.87609
2.7901
-2.7901
2.71504
0.0750654
-2.71504
0.0874761
-11.133
11.1146
-0.0351463
-11.0978
5.17319
5.17319
4.15376
0.576347
4.15376
-4.9881
0.219556
-4.9881
2.70091
-5.36348
3.10865
-6.47744
4.65802
-16.1181
4.28332
-8.33937
6.70695
-6.70695
6.59689
0.11006
-6.59689
0.128069
-1.14369
0.118575
-1.14369
-3.08633
-0.60025
-3.08633
4.32659
-0.640013
4.32659
-3.02784
3.02784
-3.07734
0.0495009
3.07734
0.0466056
1.88571
0.0385324
-1.88571
0.00985903
0.180967
0.0647308
-0.180967
0.0242156
3.49724
-0.21579
3.49724
-3.08172
-0.199736
-3.08172
-1.24397
0.100279
1.24397
0.090335
-5.81393
0.249532
-5.81393
-11.1908
0.0929848
-11.1528
-6.10655
-6.10655
2.33383
11.1263
-2.89389
0.0178004
2.89389
0.0245808
2.97427
0.053569
-2.97427
0.0565367
-2.85693
0.0668238
2.85693
0.0608035
-2.53509
0.374949
-2.53509
-1.06429
1.06429
-1.22755
0.163256
1.22755
0.235434
1.4021
-0.274827
1.4021
0.707612
0.115573
-0.707612
0.119695
-3.80219
-0.103596
-3.80219
6.55669
-0.235953
6.55669
-2.96568
-0.116041
2.96568
-0.0626369
-0.0333505
11.1479
-5.13984
0.0340011
5.13984
-11.2099
11.2439
-3.20496
0.66987
3.20496
0.948799
5.28304
0.281361
-5.28304
0.294939
6.78924
0.0478116
-6.78924
0.0822904
-2.59396
-0.492371
-2.59396
-5.05018
-0.580547
5.05018
-0.723591
-11.4745
-0.203576
11.6781
-11.4197
6.01751
0.138481
-6.01751
11.3824
-1.02476
-0.102514
1.02476
0.0395306
1.73117
-0.329066
1.73117
3.69675
-0.199508
-3.69675
-0.105443
-6.71192
-0.0985033
6.71192
-0.155231
-2.14878
-0.445172
2.14878
-0.417616
-4.26714
4.30517
1.90919
-2.3768
-2.64639
-5.63122
1.85184
1.90144
4.30171
-10.1187
-5.99942
-9.93647
7.26039
-6.96545
-9.23008
9.1482
7.91605
-8.02977
-5.78465
5.83125
6.483
-6.44224
1.87885
1.87466
8.04683
-7.80012
-15.556
15.1769
7.58688
-7.52788
15.7106
-15.7502
-17.7929
17.8407
-5.7073
5.8135
-6.74102
6.73484
-6.97736
6.91472
-2.83766
-3.63979
13.0755
-12.9253
8.66109
-8.69021
-8.64714
9.07012
3.38261
0.922561
3.42915
-1.88213
3.76098
-1.87149
3.78068
2.75906
-5.59672
2.60442
-5.25081
4.40462
4.25647
-4.32669
-1.30453
-5.92503
5.95303
-5.81431
5.87511
9.17193
-9.20824
-1.88518
3.75984
-1.86879
3.77023
-3.42499
-2.35965
3.37936
0.922346
8.04648
5.02903
-8.22842
-1.70805
-8.05131
7.8518
-8.23602
8.03628
-0.43274
5.81993
-5.38719
4.4373
-1.56594
7.38587
5.69445
5.914
5.86616
-5.5848
1.09929
-6.48648
-6.39982
-2.20071
2.33302
2.08449
-1.97875
6.16733
1.74872
6.04065
-5.77303
-2.25673
-5.87663
3.82034
2.01091
3.86984
4.07857
2.40443
4.11834
3.03039
-3.03602
0.00563731
-3.05674
6.08712
0.723813
-5.41639
-4.49404
4.98903
3.0578
5.20228
-5.57197
-2.22815
-5.17691
-9.51077
-6.04525
-10.0913
10.0525
5.12445
9.74156
-11.9194
11.7642
4.81511
2.77177
4.8687
-4.96459
-2.56329
-4.86756
11.6235
-2.64797
-8.97558
-10.2865
-7.50632
10.2735
5.43706
10.9297
6.91096
11.012
4.41403
7.20951
-9.8511
2.34477
-3.86834
-1.83896
-3.78086
3.67591
2.13759
3.80481
-4.21771
-2.52331
-4.19991
-4.29603
-2.68133
4.31681
2.41804
-4.41859
-3.81743
4.53463
2.38009
4.0358
-10.0352
4.30357
-7.94336
-9.16879
-3.75648
-9.04073
3.56143
2.6147
-6.17613
-2.03529
8.59063
-4.33416
7.2861
-5.22067
-3.46954
-5.21082
-6.9079
-1.73923
-6.75661
-8.85253
8.36016
-9.14819
8.50817
12.4698
-5.62538
-6.8444
-3.96848
-2.47376
3.92097
-0.491826
-3.71045
3.71609
0.0505237
3.8312
4.75376
4.26194
-3.88508
-1.92923
-3.82855
3.82507
2.05005
3.89189
6.86201
2.30992
6.89343
-6.63702
-2.57122
-6.73464
9.01319
-8.6142
2.83059
-2.73031
5.40375
2.63254
-5.18796
-2.86335
6.20775
-3.22017
-2.98758
-12.2075
10.522
1.68557
-4.82167
-0.384366
-0.475883
-5.48371
-3.74637
5.36339
0.550614
11.0726
7.32622
-5.51241
5.76194
6.16569
6.22268
-0.17714
5.78913
-5.11926
5.25977
-2.61876
-2.64102
5.49386
-5.63007
-1.24078
-5.54837
4.30759
0.410579
1.38551
-1.13725
-1.74583
-0.45488
-1.62614
1.17474
0.909749
1.23947
0.959848
1.37318
-2.9344
0.501403
2.433
-1.97455
-1.47734
-3.86395
-1.13444
4.99839
5.74886
2.10294
-5.64341
-0.233215
2.50745
-2.39483
-0.81836
-3.04559
2.22867
-3.04703
-3.6633
-2.09975
5.76305
-3.36984
-0.458707
3.31627
0.553573
-3.82731
-2.09772
3.7889
0.329434
-3.12835
6.19088
-3.06252
-5.05758
2.52742
3.5597
4.53833
-4.78958
2.44785
2.34173
-1.22988
4.25395
0.948337
4.42584
-6.96873
4.74058
5.82315
3.24697
-6.18217
1.00526
-5.96347
8.55235
-7.3806
-1.17175
4.17004
4.3823
7.03689
5.43289
-5.65529
12.6922
-1.20806
-6.17254
7.17153
-3.92456
4.85933
-8.7839
-10.2922
4.11968
-9.10004
10.8739
-1.77389
-3.6132
-8.30618
12.7132
-1.19942
-11.5138
8.54214
-4.29696
-4.42073
8.71769
-6.94493
6.98402
-1.99274
-4.99129
-10.071
-5.67922
10.1695
1.59465
-9.94509
12.2899
-2.73558
4.12179
0.746905
4.16854
3.30771
-5.49394
2.18623
3.63722
-5.62995
2.07861
-7.57254
-6.71152
12.0429
-5.33136
-10.468
-9.48808
-0.979928
2.53576
9.75411
-9.44672
7.40675
2.03998
3.30081
0.591083
-3.37587
-0.404991
0.233365
4.51288
-4.74625
4.03817
4.19547
3.26234
1.25054
3.84574
2.10729
-3.87032
-0.329593
-4.16429
1.48297
-1.74626
-3.69541
5.17838
-4.06758
0.372174
-2.7442
-3.49762
6.24182
-4.58315
3.03465
3.15623
5.08469
-4.91375
1.41613
-2.39272
-2.52104
2.65145
-4.39771
1.9952
3.18318
4.37529
0.557858
5.86982
6.17307
-8.48452
0.541163
11.2021
-9.49406
2.45749
8.55451
-9.86423
0.376159
-8.66457
1.00663
-5.34079
-5.1695
5.21183
-6.95106
-3.57206
6.23379
0.659636
-6.34492
-0.411684
-6.01645
-2.83608
-6.46162
-3.03468
-6.11351
-8.68997
-1.6464
-7.04357
6.71376
-6.66224
-3.42908
7.38583
1.12234
-7.38997
7.28746
-7.46799
7.13892
0.0954875
3.6206
4.35742
1.88367
-2.39072
4.27439
-5.13353
7.44345
-8.74624
3.61271
4.22027
-6.79149
-4.52597
5.00524
4.00796
5.30341
8.85773
-10.3178
1.46003
-10.6168
11.9495
-1.33264
-16.3634
5.74658
-7.50569
2.43256
0.398025
2.55114
0.540784
2.49852
-3.03931
-2.18952
-2.09919
-2.44352
-3.46493
5.90845
1.08249
-3.53261
2.45012
-3.56736
4.64984
-0.221389
-3.31122
5.26512
-2.7666
5.66315
-3.78875
1.8744
3.44115
5.75474
-2.31359
4.3961
-1.76356
1.93219
-4.24578
-1.53275
-2.95423
5.09182
-3.28759
3.65976
-0.345576
4.00534
-4.04582
0.825658
-0.783483
3.41199
3.64116
4.31733
-3.06679
2.91603
-4.67959
-1.32975
-4.12173
-0.938548
-0.253518
-3.68714
3.94066
5.95804
-6.21155
-5.22444
9.50581
-4.28137
7.67456
-5.37092
-2.30364
-4.23817
-4.37604
3.86322
1.92591
9.60048
0.206355
-5.57728
-4.91291
-3.96411
3.0983
2.16147
-1.68856
3.37413
2.16444
-0.77893
0.436012
0.803459
1.76123
-1.32522
0.309571
1.45166
-0.827674
1.69171
0.815744
-1.80728
0.181141
-1.35488
3.58355
1.07811
-1.98786
0.662642
0.982582
-3.60134
5.08479
-2.69276
-2.39203
6.06737
1.14609
-3.83885
4.40228
-3.9917
2.4077
-3.54214
-1.43115
-5.42285
-3.67413
-2.51426
4.96438
-3.39419
5.49713
1.30108
-5.26392
6.565
-3.73093
1.63118
-3.03894
3.85468
-0.918919
-2.12002
2.90059
2.86246
-3.09113
0.0455403
-0.190545
2.4014
-2.59195
-0.645624
-2.62017
-4.57375
4.90318
-2.10507
4.55292
2.16932
-1.91735
6.47027
1.80863
-3.72597
-3.24895
-3.70766
-1.38424
3.15409
-0.568038
-4.29952
-5.55932
4.16656
0.259283
-7.08508
7.90305
-0.817968
-4.02728
-0.713296
4.88334
-6.09833
0.46838
-4.01973
3.88332
4.83166
5.09094
-11.2933
-0.220491
-6.16888
1.11925
-7.28812
5.50155
-3.52416
7.64385
-10.2904
6.86128
-9.16801
6.47209
-0.81603
6.233
-4.04677
2.74258
-8.4218
-6.82716
5.57198
-2.80022
6.31889
-3.1819
9.50078
-5.91747
5.35129
4.14949
-1.01871
-4.19211
-5.36625
4.34754
-0.014965
4.15357
4.98049
-2.8732
4.65089
2.27012
-4.66284
-2.12759
-6.49624
1.8334
-3.34001
-1.92141
3.75482
3.16328
3.75436
1.23378
-3.34937
7.20004
-8.17997
-1.86868
-3.30082
5.35983
-1.01229
3.45049
-6.75132
-1.8903
4.7725
-0.776346
-3.99616
0.852875
-4.42494
1.67761
-6.10255
5.27346
-5.68514
2.22009
-9.72578
-5.16988
-5.13035
-2.25594
-5.21204
-7.54717
5.29123
-1.80059
5.48687
-8.47531
7.69896
-3.47417
8.7654
-5.41257
-1.04906
5.83018
1.30874
10.0741
0.228027
-4.75399
-1.92777
3.82464
-1.89687
1.17053
-3.45912
0.365523
2.50439
3.56298
-6.81198
0.0204918
-4.7335
-3.90785
7.9158
5.59796
11.556
1.23823
9.09349
-1.17769
10.3317
4.12571
4.36115
-2.97538
4.43541
0.965283
4.57799
-0.927146
2.80155
1.62399
1.7133
0.681528
2.30371
1.33744
3.12937
0.0900624
-2.00913
4.61437
-8.57848
-0.962906
-8.00213
1.14606
5.70171
-4.55564
2.90153
-0.740059
1.00466
-0.142426
-1.14051
1.28293
-2.78344
-1.91943
-0.467773
-1.68795
2.3506
1.8956
-1.88282
-0.90062
0.34831
-4.02244
3.19383
-3.14829
-0.285824
6.27917
-2.81343
0.221479
-1.18225
-2.3987
-2.85358
2.67243
6.1764
0.293864
3.11388
5.19704
3.09933
0.22613
3.87964
-5.65354
-3.6929
-5.87403
-0.372472
4.51087
1.76242
7.99169
5.91191
4.89962
-1.85169
-10.0317
6.49643
-2.06101
5.16378
-1.16763
-4.93492
5.06353
2.37991
-5.72317
0.0380295
-4.89689
-6.95791
-0.509734
8.20869
-9.56441
8.51535
5.67927
1.36429
-4.38984
-0.740509
4.22659
0.134561
10.4663
-1.1316
-6.68757
7.81918
-4.57011
3.6072
0.729592
2.64453
2.01252
1.27246
-5.41511
-9.97075
-2.07334
-1.528
-4.46537
0.533022
-2.42862
6.20883
-2.60163
3.90519
5.21754
6.22221
-2.12641
-4.08515
6.40777
-2.50259
3.71962
)
;

boundaryField
{
    wall-4
    {
        type            calculated;
        value           uniform 0;
    }
    velocity-inlet-5
    {
        type            calculated;
        value           uniform -3.75095;
    }
    velocity-inlet-6
    {
        type            calculated;
        value           uniform -5.62643;
    }
    pressure-outlet-7
    {
        type            calculated;
        value           nonuniform List<scalar> 8(3.25924 7.75558 4.47261 9.65893 7.42484 5.19125 5.80956 8.94134);
    }
    wall-8
    {
        type            calculated;
        value           uniform 0;
    }
    frontAndBackPlanes
    {
        type            empty;
        value           nonuniform List<scalar> 0();
    }
}


// ************************************************************************* //
