/*--------------------------------*- C++ -*----------------------------------*\
| =========                 |                                                 |
| \\      /  F ield         | OpenFOAM: The Open Source CFD Toolbox           |
|  \\    /   O peration     | Version:  2206                                  |
|   \\  /    A nd           | Website:  www.openfoam.com                      |
|    \\/     M anipulation  |                                                 |
\*---------------------------------------------------------------------------*/
FoamFile
{
    version     2.0;
    format      ascii;
    arch        "LSB;label=32;scalar=64";
    class       volVectorField;
    location    "96";
    object      U;
}
// * * * * * * * * * * * * * * * * * * * * * * * * * * * * * * * * * * * * * //

dimensions      [0 1 -1 0 0 0 0];

internalField   nonuniform List<vector> 
918
(
(0.98516 -0.000508473 0)
(0.00501697 2.96625 0)
(0.00981659 0.875095 0)
(0.979705 0.00214493 0)
(-0.0124486 2.06242 3.76471e-20)
(-0.00705006 2.9488 -2.42558e-18)
(0.824518 1.17119 4.50807e-19)
(0.104758 0.0791927 -1.45807e-20)
(0.999909 -0.000275491 0)
(0.0664043 0.742659 0)
(0.0204754 0.480839 0)
(0.731844 0.00725081 0)
(0.0111113 2.93035 0)
(0.0030942 2.79494 0)
(-0.0179497 3.14505 7.82903e-19)
(-0.0208012 1.91988 1.211e-20)
(0.286633 0.0627285 1.02082e-18)
(0.190245 1.14872 3.16205e-19)
(0.962709 0.00501242 0)
(0.00809004 0.405866 0)
(-0.00528068 0.0210431 -6.67155e-19)
(1.00197 -0.00497407 0)
(1.00023 -0.009783 0)
(0.975741 -0.00643824 0)
(0.59803 0.0313134 0)
(0.0136403 2.64291 0)
(-0.0147412 2.90993 8.89582e-19)
(0.0172248 0.918931 0)
(-0.0207007 1.18461 0)
(0.020069 0.902923 0)
(-0.0158093 2.58413 0)
(-0.00138618 2.11638 -3.00678e-20)
(-0.0112362 1.89969 0)
(-0.0206019 2.98761 -8.70555e-23)
(-0.0166814 3.00529 1.88502e-18)
(0.0021018 3.00017 0)
(0.871485 -0.00966199 0)
(0.399152 0.927078 1.82315e-19)
(0.811295 1.1846 -5.15161e-19)
(0.962653 1.03107 5.62324e-19)
(0.678655 1.27653 -1.05156e-19)
(0.678045 1.25068 6.01716e-19)
(0.134251 0.118948 1.42229e-20)
(0.140907 0.0603201 0)
(1.16837 0.567289 0)
(0.0982657 0.0900316 6.40752e-20)
(0.0730554 0.0550419 -6.65033e-20)
(0.919932 -0.00745802 0)
(1.00027 0.000162972 0)
(0.999909 0.000340098 0)
(1.00363 -0.00775686 0)
(1.00096 -0.000916668 0)
(1.00017 3.85629e-05 0)
(0.0725952 1.82559 -7.73837e-19)
(0.0330503 0.945839 0)
(0.0985299 0.822686 0)
(0.0150658 0.893185 0)
(0.0417063 0.661115 0)
(0.00735322 2.01612 0)
(0.00285144 0.770394 0)
(0.0200885 0.504484 0)
(-0.00168488 0.757874 0)
(0.0143173 0.459871 0)
(0.842251 -0.0156537 0)
(0.842371 0.0272329 0)
(0.757672 0.00416062 0)
(0.8007 0.0295523 0)
(0.700809 0.0192859 0)
(0.014683 3.00041 8.98542e-19)
(0.0114934 3.00808 0)
(0.00610737 3.00274 0)
(0.0135471 2.99737 1.01862e-23)
(0.00795822 2.95848 -1.33545e-18)
(0.0144874 2.98199 0)
(0.0108618 2.90361 0)
(0.0246716 2.93064 2.02697e-24)
(0.00462973 2.82483 0)
(0.0305347 2.9164 0)
(-0.00522601 2.74636 0)
(0.302727 3.53497 0)
(-0.131423 3.6151 0)
(0.136407 3.23462 -7.28553e-19)
(-0.0140392 2.97472 0)
(-0.0281296 1.98707 0)
(-0.00706773 2.17031 -1.1944e-20)
(-0.0146308 1.92837 6.69019e-21)
(0.337185 0.137162 -3.54396e-19)
(0.317309 0.0379641 -3.44498e-19)
(0.291229 0.139874 -1.06162e-18)
(0.250052 0.0680067 -6.89525e-19)
(0.229863 0.98627 0)
(0.273638 1.29802 -3.68423e-19)
(0.369202 1.23432 6.15167e-19)
(0.987419 0.00858331 0)
(0.941839 0.00580197 0)
(1.0003 0.000581815 0)
(1.00286 0.00931051 0)
(1.00301 0.00847654 -2.75854e-18)
(0.991906 0.00969279 2.08315e-18)
(-0.0106937 0.745971 0)
(0.013586 0.416323 0)
(-0.0560425 1.00872 0)
(-0.0325436 0.796723 0)
(0.000560601 0.406917 0)
(-0.0894369 0.0909863 2.07046e-19)
(0.0473611 0.0645672 0)
(0.993556 -0.00836841 0)
(0.954475 -0.00653438 0)
(0.743474 0.0302202 0)
(0.677802 0.028795 0)
(0.660666 0.0265899 0)
(0.973101 -0.00704824 0)
(0.585037 0.0740335 0)
(0.458619 -0.000767189 1.54756e-18)
(-0.0371853 2.86214 6.4891e-19)
(0.0411317 2.91032 0)
(0.0532953 2.88628 0)
(-0.00417268 2.70111 0)
(-0.0134604 2.98503 8.41235e-19)
(-0.017811 2.89485 0)
(-0.0154653 2.98806 -2.61084e-18)
(-0.013279 2.92515 8.94182e-19)
(-0.0394282 1.35613 0)
(-0.00850592 1.38876 0)
(-0.00728676 2.13552 5.79934e-22)
(-0.00637481 2.09714 0)
(-0.0231419 1.90731 0)
(0.938718 -0.00734809 0)
(0.857693 -0.00997364 0)
(0.862533 0.0057486 0)
(0.949682 -0.00778241 0)
(0.88415 -0.00820209 0)
(0.51001 1.11963 -2.30012e-19)
(0.559382 1.17082 0)
(0.36402 0.87176 3.38292e-20)
(0.307284 0.730803 0)
(0.924938 1.06705 -1.55245e-19)
(1.04454 0.876414 3.174e-19)
(0.36167 1.36077 0)
(0.530386 1.33225 0)
(0.551181 1.27119 0)
(0.121376 0.183379 -3.0407e-19)
(0.162741 0.116022 0)
(0.174251 0.0999857 1.89759e-19)
(1.01509 0.930652 0)
(1.08931 0.783596 0)
(1.11476 0.725284 -2.53441e-19)
(1.14771 0.626883 0)
(1.19744 0.409431 5.79431e-20)
(0.957817 -0.00867927 0)
(0.962547 -0.010019 0)
(0.901814 -0.00798932 0)
(0.984213 -0.00913945 0)
(0.974729 -0.00932105 0)
(0.937155 -0.00637556 0)
(1.00019 0.00234126 0)
(1.0009 0.00141833 0)
(0.999909 0.000856008 0)
(0.0355729 2.07041 4.28705e-19)
(0.118308 1.76864 0)
(0.0182467 2.18371 6.59509e-19)
(0.0458573 1.87986 -5.4972e-19)
(0.107433 1.15112 -2.58924e-19)
(0.0503859 1.02706 0)
(0.144557 0.988841 0)
(0.00890902 0.845584 0)
(0.0215614 0.596907 0)
(-0.000733313 2.24052 -7.99066e-22)
(0.0162625 2.01968 0)
(-0.00164282 2.24364 -2.67155e-20)
(0.0087954 2.02627 3.99894e-20)
(0.00612795 0.813741 0)
(0.00461801 0.789288 0)
(0.0160916 0.545736 0)
(-0.00553502 0.748499 0)
(0.0080767 0.440224 0)
(0.938948 0.00989113 0)
(0.851114 -0.0145882 0)
(0.92797 0.000513736 0)
(0.842958 -0.0128702 0)
(0.80929 0.00123781 0)
(0.899283 0.0208673 0)
(0.875323 0.0244197 0)
(0.783088 0.001369 0)
(0.00570123 3.06494 -8.35171e-21)
(0.0166371 3.05757 0)
(0.0146367 2.96901 0)
(0.00873435 2.87626 0)
(0.91662 3.94427 0)
(1.22893 3.27814 9.21001e-19)
(0.0684679 3.0672 0)
(-0.0297176 2.90077 0)
(-0.011371 1.4125 0)
(-0.033812 1.70279 0)
(-0.0202299 1.5426 0)
(-0.0311929 2.54381 -9.39944e-21)
(-0.0159055 2.23866 0)
(-0.0216636 2.38456 0)
(-0.000599702 1.95493 9.19409e-22)
(-0.00365231 2.24064 -1.0712e-20)
(-0.0054979 2.20515 -6.98309e-21)
(-0.00846127 1.93977 0)
(0.386994 0.120744 5.42003e-19)
(0.367207 0.0239707 -5.31877e-19)
(0.258008 1.58361 0)
(0.278324 0.759543 -3.16655e-19)
(0.176694 1.67107 -1.04898e-18)
(0.225425 1.22143 1.05124e-18)
(0.901898 0.00622887 0)
(0.967317 0.0112158 0)
(0.974506 0.0108405 0)
(0.923246 0.00633448 0)
(-0.00826417 0.744353 0)
(-0.00917116 0.741799 0)
(0.00870632 0.421422 0)
(0.0879714 0.0672886 5.88574e-19)
(0.0853948 0.0394285 -6.90344e-19)
(0.0476686 0.0501937 0)
(1.10245 0.0872891 2.71992e-20)
(1.08441 0.0400787 0)
(1.01547 0.0405048 0)
(0.908841 -0.00494121 0)
(0.439562 0.103574 0)
(0.498634 0.0870968 -2.47389e-18)
(0.410498 0.0175819 9.25667e-19)
(0.00854179 2.98093 7.00933e-19)
(-0.0324775 2.865 4.63692e-20)
(0.00358886 3.05035 -1.7702e-20)
(0.0202032 3.04325 6.28946e-19)
(-0.0149704 2.99658 2.93851e-20)
(-0.0129328 2.94944 -1.18228e-22)
(-0.0172725 3.01192 -5.44328e-19)
(0.014912 3.02367 3.94675e-19)
(0.00743865 3.03695 -6.24418e-19)
(0.93427 -0.00113415 0)
(0.939654 -0.00313931 0)
(0.846278 -0.00945855 0)
(0.956361 0.0120814 0)
(0.942373 0.0134997 0)
(0.881265 0.00570752 0)
(0.916321 0.0173986 0)
(0.925428 0.015372 0)
(0.837055 0.00305626 0)
(0.712462 1.39643 3.5241e-20)
(0.745929 1.50501 0)
(0.178584 0.309378 7.06607e-20)
(0.229212 0.666032 5.67969e-19)
(0.26081 0.715262 -3.31928e-19)
(0.260034 0.51336 6.61103e-19)
(0.347192 0.811406 1.60008e-18)
(0.141243 0.230119 3.77715e-19)
(0.25088 0.140597 7.29503e-19)
(0.212374 0.13113 1.8891e-19)
(0.212318 0.0817227 3.5755e-19)
(1.18635 0.467677 6.64642e-20)
(1.20068 0.258983 6.13361e-20)
(0.0104584 2.23253 2.53737e-19)
(0.0402927 1.94837 0)
(0.972011 0.0296874 0)
(0.944179 0.0140858 0)
(0.870271 -0.0177039 0)
(0.0114484 3.07427 0)
(0.0197595 2.94421 1.14897e-18)
(0.0163743 2.95634 0)
(0.00640706 2.85048 -1.13971e-18)
(0.00639227 3.09172 2.78619e-19)
(0.0069368 3.08221 0)
(0.778594 1.8058 -1.56462e-19)
(1.23667 2.48002 3.95479e-19)
(0.760511 1.945 -1.21744e-18)
(0.0193201 2.98045 -6.00933e-19)
(0.0344816 2.99796 0)
(-0.0351548 2.87555 0)
(-0.00381166 2.22362 -1.32602e-20)
(-0.00312696 2.24473 1.74323e-20)
(0.00208582 1.98918 -7.36717e-21)
(0.278252 1.39358 1.02697e-18)
(0.240436 0.555721 -7.04004e-19)
(0.0636947 1.9954 7.62495e-19)
(0.13486 1.8817 -9.10561e-19)
(0.179843 1.51215 9.53199e-20)
(0.00541968 3.11841 -1.54555e-18)
(0.0113549 3.11924 1.69382e-18)
(-0.00936058 2.9805 7.73108e-19)
(-0.00449681 2.97712 -7.28109e-19)
(-0.0213342 2.88041 -7.87401e-19)
(0.00841154 3.09923 -2.06805e-18)
(0.00145597 3.10555 2.0869e-18)
(0.282894 0.693283 0)
(0.248203 0.681481 -1.18347e-18)
(0.0952047 0.223044 5.25345e-19)
(0.358472 0.939399 1.11796e-18)
(0.196375 0.27687 -1.72376e-18)
(1.19065 0.176588 6.28899e-20)
(1.20099 0.314052 0)
(1.17901 0.123806 -5.73243e-21)
(0.00174971 2.25177 -1.45987e-21)
(0.00515897 2.24278 0)
(0.0247185 1.98445 0)
(0.339519 1.30243 -3.68525e-19)
(0.37531 1.15148 -8.02303e-19)
(0.211161 0.379763 1.4314e-18)
(1.00588 -0.0108219 0)
(1.00767 -0.00762973 5.08867e-19)
(-0.0331923 1.33767 0)
(-0.0449688 1.34064 0)
(1.00221 0.00351725 1.81275e-21)
(1.00366 0.00947418 1.03908e-18)
(-0.0198213 2.5288 1.1914e-20)
(-0.0246399 2.57138 0)
(0.0330067 3.17606 3.93205e-19)
(0.387394 3.47962 0)
(1.17939 0.669246 -5.63573e-20)
(1.01282 0.0131555 -2.13266e-21)
(1.02137 -0.0102583 0)
(1.0017 0.000138448 8.11172e-23)
(0.113304 1.37466 0)
(0.143101 2.56145 0)
(0.0358717 1.31652 0)
(0.000905098 2.61352 2.70246e-20)
(-0.0202803 2.57124 2.29047e-22)
(0.99965 0.0311165 2.51909e-21)
(1.06335 0.00494509 0)
(1.09801 0.025636 0)
(-0.032029 1.74702 0)
(-0.0183016 2.57275 0)
(-0.00443956 1.32752 0)
(0.311723 1.48769 -1.65774e-19)
(1.01131 -0.00960604 0)
(1.0094 -0.0149132 0)
(1.00237 0.000764672 6.50375e-19)
(1.00547 -0.00479281 -7.64366e-19)
(1.00118 -0.000964565 0)
(-0.0196532 1.47893 0)
(-0.00682634 1.39505 0)
(-0.0114025 1.43802 0)
(-0.00976562 1.31401 0)
(-0.023919 1.3022 0)
(-0.0116678 1.28678 0)
(1.03511 -0.00599444 0)
(1.0198 0.0161832 -9.11929e-22)
(0.825726 1.27983 2.61856e-19)
(1.00224 0.000330927 -6.47761e-19)
(1.00406 0.00526725 7.5848e-19)
(1.00118 0.00208042 0)
(1.01269 0.0103974 6.44852e-19)
(1.00797 0.00832247 -7.81308e-19)
(1.00855 0.0146862 0)
(-0.0237186 2.60008 0)
(-0.0261709 2.57919 -2.21789e-20)
(-0.0232077 2.59353 1.56439e-20)
(1.24002 0.270498 5.82245e-19)
(1.16411 0.0880273 0)
(0.0390146 3.07899 -8.84853e-19)
(0.0644177 2.85762 -6.44006e-20)
(0.136006 3.19221 1.34719e-18)
(0.131753 3.21892 -1.87862e-19)
(0.131691 3.22878 0)
(0.0183101 3.13715 2.28385e-19)
(0.0726498 3.15992 8.72678e-19)
(0.0658056 3.18445 -4.30668e-19)
(0.021312 3.12983 0)
(0.550682 0.279677 0)
(0.482069 0.297609 0)
(1.15212 0.705756 1.26997e-19)
(1.14482 0.827694 -1.09361e-19)
(1.20737 0.592021 0)
(1.23442 0.525253 0)
(1.016 0.0134137 -1.20191e-18)
(1.01491 0.0143059 1.50902e-18)
(1.02543 -0.00978086 0)
(1.02349 -0.0118299 0)
(1.00643 0.00267014 0)
(1.01043 0.00377887 0)
(1.00458 0.00188264 0)
(1.00978 0.00627889 0)
(1.0078 0.00597206 0)
(1.0045 0.00474211 0)
(0.101939 1.37336 0)
(0.0990575 1.33472 0)
(0.1324 1.40998 0)
(0.150119 1.41378 0)
(0.145227 2.58659 0)
(0.184591 2.65729 -4.23797e-19)
(0.101646 2.64143 0)
(0.0853771 2.64456 1.9913e-19)
(0.039386 2.66786 -1.48294e-19)
(0.0239963 1.33491 0)
(0.0336689 1.24902 0)
(0.0260477 1.34548 0)
(0.0471549 1.27013 0)
(0.00526673 1.97977 5.118e-21)
(-0.0191952 2.59891 -2.29646e-20)
(-0.00700084 2.65472 1.13376e-20)
(-0.0168896 2.67496 0)
(-0.0223036 2.60467 4.56859e-21)
(-0.0223469 2.59975 1.90851e-20)
(0.0140174 1.97765 -2.08107e-22)
(-0.00667646 2.38483 3.08064e-20)
(-0.0120833 2.40828 -1.28594e-20)
(1.01181 0.0400394 1.21646e-18)
(1.00553 0.0212216 -1.51454e-18)
(1.004 0.0472852 -1.23943e-18)
(0.978746 0.037786 1.55971e-18)
(1.06455 0.00873832 0)
(1.04964 -0.00810387 0)
(1.09514 0.0356574 0)
(1.07475 0.0133285 0)
(1.07257 0.00111309 0)
(1.14105 0.0848104 0)
(1.11265 0.0455066 0)
(1.11692 0.033169 0)
(-0.0265552 2.42333 1.84938e-21)
(-0.0161253 2.01413 0)
(-0.0189116 2.21246 0)
(-0.0202572 2.59322 -1.35468e-20)
(-0.0173319 2.60335 2.88633e-22)
(0.00228289 1.5915 -4.44364e-20)
(-0.0102915 1.51917 4.53127e-20)
(-0.018049 1.40826 0)
(-0.0225528 1.4159 0)
(-0.0302799 1.40975 0)
(-0.00129952 1.32957 0)
(0.0164678 1.24261 0)
(0.388378 1.50515 2.68914e-19)
(0.431854 1.50572 1.44071e-19)
(0.596435 2.43715 -2.41097e-19)
(0.396739 2.53479 7.09366e-19)
(0.348193 2.04524 7.31594e-20)
(1.0211 -0.00808541 0)
(1.01552 -0.00972784 0)
(1.01493 -0.0154948 0)
(1.00741 -0.00104328 0)
(1.00493 -0.000896925 0)
(1.00779 -0.00466728 0)
(1.00928 -0.00357725 0)
(1.01424 -0.00433608 0)
(1.02052 0.0166772 1.1776e-18)
(1.01752 0.0158745 -1.50916e-18)
(1.02082 0.0189729 -1.18664e-18)
(1.01826 0.0175238 1.48767e-18)
(0.789082 1.32999 0)
(0.723864 1.38166 2.4617e-19)
(0.902211 1.22988 9.87049e-20)
(0.947942 1.1758 -1.31361e-19)
(1.15029 2.59195 2.8934e-19)
(0.763252 0.123718 6.02725e-19)
(1.16462 0.110947 0)
(1.21449 0.196995 -4.68756e-19)
(1.20207 0.157173 -1.99936e-20)
(1.00584 0.159351 0)
(0.125548 2.96065 5.12691e-19)
(0.101383 2.86647 -1.11829e-18)
(0.00828625 2.37787 7.45112e-19)
(0.109228 -0.180651 -3.00449e-19)
(0.332676 3.41018 -2.19214e-19)
(0.189006 3.30651 0)
(0.232901 3.34558 2.85497e-19)
(0.23606 3.03146 -1.72457e-18)
(0.327805 3.18778 0)
(0.00645138 3.12086 4.48886e-20)
(0.0171552 3.12946 -5.27552e-19)
(0.0150435 3.12556 7.76462e-19)
(0.0339553 3.13953 0)
(0.0320597 3.15012 0)
(1.20437 2.58863 0)
(0.550009 0.795942 -5.2707e-19)
(1.07149 1.00055 -1.06719e-20)
(1.00751 1.08443 0)
(0.860958 0.979054 -1.09779e-19)
(1.09877 0.901018 2.78809e-20)
(0.250839 0.306702 -8.01942e-19)
(0.637513 0.325231 -1.5303e-20)
(0.522686 0.219352 4.06483e-19)
(0.500465 0.336088 2.90098e-20)
(0.381266 0.258778 -1.16129e-18)
(0.588196 0.325535 0)
(0.704389 0.432262 6.63393e-19)
(0.701852 0.432525 0)
(0.543634 0.34019 0)
(0.456827 0.236337 0)
(0.833278 0.633758 4.0745e-19)
(1.24147 0.292998 -4.89569e-19)
(1.24233 0.433074 0)
(1.25032 0.373011 0)
(0.669898 0.196011 6.23e-19)
(0.877236 0.564197 -3.71695e-19)
(0.776395 0.542793 6.63682e-19)
(0.963283 0.453462 -7.34976e-19)
(1.01924 0.0150746 8.09441e-19)
(1.01753 0.0144159 -8.13115e-19)
(1.01574 0.015513 0)
(1.03659 -0.00553419 0)
(1.02998 -0.00832681 -7.61315e-19)
(1.02803 -0.0119248 7.5375e-19)
(1.02491 0.0107006 0)
(1.0234 0.0144353 0)
(1.01143 0.00420768 0)
(1.01417 0.00922958 0)
(1.01519 0.00423914 0)
(1.0143 0.00294784 0)
(0.0730428 1.35672 0)
(0.0803982 1.30073 0)
(0.149363 1.39205 4.24932e-21)
(0.282672 1.48611 8.79309e-20)
(0.177433 1.45676 1.84622e-19)
(0.209528 1.46202 -3.01125e-19)
(0.177965 1.41788 0)
(0.136449 1.59984 -7.50675e-20)
(0.119819 1.57995 0)
(0.343884 1.9936 -1.06393e-19)
(0.340394 2.33069 6.16971e-19)
(0.196064 1.46812 6.54343e-20)
(0.269998 1.40327 2.16349e-20)
(0.203161 1.3966 -1.7468e-20)
(0.279936 1.34594 -1.09314e-19)
(0.24324 1.57817 0)
(0.269595 1.61457 1.16867e-19)
(0.0313242 2.25153 -2.99651e-20)
(0.0443339 2.65675 0)
(0.0669324 2.38737 1.39008e-19)
(0.0637609 2.40779 0)
(0.0699933 2.65808 -2.2067e-19)
(0.0497574 2.68709 0)
(0.0310398 1.45385 3.54191e-20)
(0.0372888 1.49984 0)
(0.03552 1.41831 0)
(0.0311429 1.42505 -3.99705e-20)
(0.00171502 2.64084 -1.64108e-20)
(0.0304829 2.68618 1.66534e-19)
(0.0113261 2.71165 1.16434e-21)
(0.00714267 1.84021 -8.88024e-21)
(-6.23469e-05 1.69495 -4.63319e-21)
(0.0205016 1.31072 0)
(0.0312163 1.22287 0)
(0.046291 1.59781 -2.57389e-20)
(0.036439 1.4795 -3.19944e-20)
(0.040003 1.5418 3.98913e-20)
(0.0414968 1.62097 0)
(-0.0298222 2.26464 1.06795e-19)
(-0.0307906 2.53988 -4.43688e-20)
(-0.016712 2.4383 5.26188e-21)
(-0.000401183 1.85545 1.07617e-20)
(-0.0252743 2.4905 4.692e-21)
(-0.0195191 2.43507 -7.26972e-21)
(1.01894 0.0223672 -8.07113e-19)
(1.01555 0.0287365 8.10245e-19)
(1.01293 0.0183966 0)
(1.00904 0.0715945 1.13579e-18)
(0.991611 0.0621127 -1.26769e-18)
(0.950823 0.0560801 1.41741e-18)
(1.01238 0.112131 -1.51144e-19)
(1.04304 -0.00550067 0)
(1.05151 -0.00105587 7.26003e-19)
(1.03935 -0.00967098 -7.27502e-19)
(1.07229 0.0433669 -4.31861e-20)
(1.06523 0.0244753 3.72385e-19)
(1.06321 0.0577383 0)
(1.05412 0.051104 -1.33986e-19)
(1.03215 0.0425194 0)
(1.02658 0.0385763 0)
(1.0279 0.0138459 0)
(1.02389 0.0166778 0)
(1.04026 0.0333475 2.7591e-19)
(1.0389 0.0272224 -6.09941e-19)
(1.05144 0.0349644 -2.92379e-19)
(1.0484 0.0350474 -3.22054e-19)
(1.07178 0.0661447 6.28533e-19)
(1.09739 0.0539116 0)
(1.10696 0.0983816 0)
(-0.0255138 2.26915 6.00611e-20)
(-0.0258381 2.01981 1.71084e-21)
(-0.0218429 2.02702 0)
(-0.0268273 2.43752 -5.97716e-20)
(-0.0227737 2.39429 -3.47919e-21)
(-0.0332738 2.46392 6.49256e-21)
(-0.0200495 2.61234 -1.67381e-20)
(-0.0229601 2.55397 4.78769e-22)
(-0.021569 2.506 -5.01784e-21)
(-0.0154179 2.60625 1.31705e-20)
(-0.0203084 2.60826 -1.45086e-20)
(-0.00605095 1.52136 -9.41519e-22)
(0.00266082 1.63766 -4.27183e-20)
(0.373545 1.45387 -1.12722e-19)
(0.373461 1.38603 4.4179e-20)
(0.664722 1.43135 -2.38077e-19)
(0.530692 1.49836 -1.41361e-19)
(0.588599 1.46449 0)
(0.592191 2.41429 2.07787e-19)
(0.660741 2.41028 3.38288e-19)
(0.410313 2.50358 8.81333e-20)
(0.401671 2.52768 -6.12365e-19)
(0.509164 2.46828 6.17714e-19)
(0.552242 2.45097 0)
(0.486637 2.5089 -5.60418e-19)
(0.247705 2.58103 1.14479e-18)
(0.353961 2.55299 -7.67448e-20)
(0.283103 2.64267 -1.5886e-18)
(0.947185 2.36707 7.31616e-19)
(0.837154 2.37268 0)
(1.01109 0.000562949 2.63852e-20)
(1.01538 -0.00533349 -2.14008e-20)
(1.0177 -0.00342967 -3.9087e-19)
(1.01507 -0.000793011 3.93013e-19)
(1.01249 0.00131156 0)
(0.652417 1.29448 0)
(0.676303 1.18875 0)
(0.790647 1.10827 0)
(0.669723 1.15153 0)
(1.18065 2.60545 6.04098e-20)
(1.06814 2.35198 0)
(0.830879 2.15533 3.94423e-21)
(0.821675 2.42183 0)
(0.920304 2.51587 -4.28678e-19)
(0.955056 2.4721 2.85128e-19)
(0.795707 0.183847 0)
(0.735929 0.157234 1.63392e-19)
(0.905107 0.153378 9.52661e-19)
(0.821193 0.155951 -3.56193e-19)
(0.774059 0.0902129 -1.10183e-18)
(1.08324 0.244307 -8.96169e-19)
(0.999707 0.308611 -1.80122e-20)
(0.926525 0.312742 8.62358e-19)
(1.00676 0.237891 7.24974e-19)
(0.947161 0.201927 -1.2601e-18)
(0.908019 0.206401 1.57625e-19)
(0.946567 0.273624 -3.34407e-19)
(0.924272 0.232553 0)
(0.995459 0.198545 6.21342e-19)
(1.04728 0.197014 0)
(1.04508 0.225704 0)
(1.10833 0.122947 2.91334e-19)
(1.07243 0.183259 -1.51975e-20)
(1.07668 0.244233 -1.58486e-19)
(1.10207 0.209902 0)
(1.02089 0.0469384 6.22511e-19)
(1.04039 0.0601438 7.7662e-19)
(1.03366 0.0453542 -6.1863e-19)
(1.04246 0.0680666 -5.21056e-19)
(1.01691 0.0764126 -8.00221e-19)
(0.983531 0.161699 0)
(0.988865 0.106721 0)
(0.965946 0.0771884 -5.04304e-19)
(0.903628 0.0980799 2.00719e-19)
(1.04043 0.109134 7.19708e-19)
(1.06968 0.126344 -8.40282e-19)
(1.07686 0.159086 7.50296e-19)
(1.03213 0.153766 0)
(1.07519 0.113665 0)
(1.05419 0.094299 -3.44411e-19)
(1.04475 0.100069 -5.87265e-19)
(0.577856 1.04808 1.4427e-19)
(0.600247 1.3699 -4.62921e-20)
(1.15107 2.7225 -2.3436e-19)
(1.21621 3.0648 3.73416e-21)
(1.24205 2.70426 -1.32947e-19)
(1.2698 2.68686 -2.62902e-20)
(1.19599 2.32597 -1.13571e-20)
(1.20398 2.96834 -9.99879e-20)
(1.22453 2.93391 2.44418e-19)
(1.20587 3.21686 -1.39488e-19)
(1.36464 2.94646 1.92647e-19)
(1.35204 2.86407 0)
(0.573726 0.806635 -5.09954e-20)
(0.0939669 1.21324 5.5996e-19)
(0.564976 0.312566 5.29881e-19)
(0.397849 0.0574863 5.65663e-19)
(0.435595 0.306535 6.59107e-19)
(0.537299 0.426632 -1.07181e-18)
(0.540933 0.420749 8.76789e-19)
(0.434622 0.278551 -3.30722e-19)
(0.275085 0.204132 7.43367e-19)
(0.699401 0.271843 -3.60325e-19)
(0.65393 0.293728 0)
(0.584216 0.209054 6.21888e-21)
(0.740802 0.51674 3.59268e-19)
(0.724005 0.487794 -1.30576e-18)
(0.61817 0.449826 8.79888e-21)
(0.60789 0.439812 0)
(0.699482 0.72113 3.96927e-19)
(0.861714 0.78529 3.92933e-19)
(0.786815 0.869002 -4.59979e-19)
(0.907356 0.822341 -1.5336e-19)
(0.938918 0.867736 -3.69262e-20)
(0.945944 0.867501 3.78141e-20)
(0.872361 0.667742 -6.75192e-19)
(0.952179 0.719912 1.42382e-19)
(1.01287 0.734621 0)
(1.00338 0.710771 -1.92334e-19)
(1.0297 0.349621 2.12177e-19)
(1.15151 0.309845 2.88346e-19)
(1.07128 0.282036 3.66251e-19)
(1.02047 0.382649 -4.31618e-19)
(1.06988 0.445111 0)
(1.12619 0.424912 0)
(0.920886 0.385714 1.29104e-21)
(0.835055 0.31992 0)
(0.885921 0.31941 4.07034e-19)
(0.909844 0.320932 -8.37343e-21)
(0.958375 0.457287 2.04711e-18)
(0.920182 0.513521 5.25383e-19)
(0.923948 0.479915 -5.60869e-19)
(0.837469 0.468976 6.02804e-19)
(0.82041 0.463527 3.61587e-19)
(0.788291 0.445768 -3.54855e-19)
(1.02744 -0.000135984 6.51219e-19)
(1.02007 0.000159987 0)
(1.01858 0.00108315 4.2463e-19)
(1.02181 -0.00143823 -9.61929e-19)
(1.0224 0.00463085 4.67305e-19)
(1.02033 0.0116819 -9.78586e-19)
(1.02122 0.0110817 0)
(1.02044 0.0113179 -2.03958e-19)
(1.01595 0.00794 5.1166e-19)
(1.01658 0.0107571 -2.5537e-19)
(1.01729 0.0101182 1.88005e-19)
(0.0369471 1.33297 0)
(0.0438826 1.38953 0)
(0.0533885 1.33313 0)
(0.0609046 1.27758 0)
(0.0762249 1.40653 -4.11893e-20)
(0.0866277 1.37225 1.92593e-20)
(0.115038 1.55012 -1.68761e-20)
(0.108479 1.39559 -2.89e-21)
(0.0417804 1.48454 1.68812e-20)
(0.0454018 1.47825 -1.29862e-20)
(0.0692956 1.39422 -1.12166e-20)
(0.0618385 1.39491 4.21782e-20)
(0.0564699 1.37213 6.32834e-21)
(0.0469739 1.39604 3.49949e-21)
(0.107535 2.35465 -1.53624e-19)
(0.0962689 2.40379 0)
(0.169239 2.0292 1.10393e-19)
(0.114623 1.70204 4.1711e-20)
(0.234614 2.02752 -9.13596e-20)
(0.198608 2.41681 0)
(0.261391 2.36674 -6.12091e-19)
(0.301504 2.36444 4.32281e-19)
(0.228247 1.98693 -2.54547e-19)
(0.15488 2.14505 1.72042e-19)
(0.141188 2.2507 0)
(0.0195209 1.87557 4.35858e-21)
(0.00193103 2.37932 -3.2655e-20)
(0.00723322 2.13785 0)
(0.0122915 2.44372 -1.36606e-20)
(0.0300468 2.28633 9.56104e-21)
(0.0193778 1.43284 -7.92843e-21)
(0.0184005 1.41519 1.35425e-19)
(0.0164545 1.4242 -4.48645e-20)
(0.0242079 1.43016 -3.75096e-20)
(0.0291475 1.45778 0)
(0.012073 1.40858 0)
(0.00572533 1.31051 -6.19187e-20)
(0.00903972 1.40231 1.79389e-20)
(0.0145338 1.39967 0)
(0.0142362 1.30028 -4.52022e-20)
(0.0277989 1.21323 9.28552e-20)
(1.04087 0.0121638 0)
(1.04712 0.00844599 -6.81346e-20)
(1.03893 0.022729 -4.91469e-19)
(1.04863 0.0214101 0)
(1.05247 0.0211917 0)
(1.03656 0.0124366 -6.81934e-21)
(1.03123 0.0122808 7.89904e-19)
(1.03176 0.0173309 9.57963e-19)
(1.02555 0.0212816 0)
(1.02251 0.0218729 0)
(1.03541 0.0263274 4.90284e-19)
(1.0259 0.0281044 0)
(1.02403 0.0277265 0)
(-0.0170812 2.02252 0)
(-0.000483666 1.66535 -3.88455e-21)
(-0.00463019 1.76787 -3.19642e-20)
(0.000456013 1.41003 0)
(-0.00428151 1.57291 -2.39535e-20)
(-0.0103039 1.48744 1.49917e-20)
(-0.00732881 1.4288 0)
(0.386837 1.6305 0)
(0.376511 1.31116 -8.5592e-20)
(0.299514 1.33891 0)
(0.428216 1.30978 2.16205e-20)
(0.479172 1.47598 0)
(0.459691 1.42002 1.94142e-20)
(1.03533 2.66768 -1.54767e-20)
(0.967358 2.39548 -9.19274e-19)
(0.92025 2.18421 1.0282e-18)
(0.851267 2.36441 2.43458e-19)
(0.846798 2.4764 0)
(0.916306 2.47265 0)
(0.930498 2.36041 0)
(0.909529 2.35009 -9.50301e-19)
(0.684624 2.43962 -4.01391e-19)
(0.798672 2.42909 -9.89767e-20)
(0.808409 2.4034 7.51946e-20)
(0.694327 2.38323 0)
(0.799684 2.37839 0)
(0.757694 2.39204 -3.70181e-19)
(0.765998 2.46626 0)
(0.638292 1.09583 0)
(0.478947 0.891752 -5.27827e-19)
(0.575819 0.943128 -3.33024e-20)
(0.517515 1.02623 0)
(0.517879 0.965999 7.88922e-19)
(0.807195 0.891078 -1.30092e-19)
(0.815113 1.02566 0)
(0.790674 0.992615 1.85674e-19)
(0.675844 1.0364 0)
(0.676445 0.939659 0)
(1.16069 2.74534 -2.34017e-19)
(1.13803 2.80904 -1.01676e-19)
(0.925922 2.32179 1.08551e-19)
(0.894048 2.30148 -8.53275e-20)
(1.12657 2.71798 0)
(1.08081 2.68731 1.02633e-19)
(1.08544 2.47008 -3.15336e-19)
(0.979722 2.22323 -2.98185e-20)
(0.489401 1.32201 0)
(0.506208 1.05547 -1.27119e-19)
(0.580754 1.16949 0)
(0.84851 0.251513 0)
(0.756097 0.200508 0)
(0.661932 0.1548 0)
(0.839387 0.252413 -6.32963e-19)
(0.72621 0.245544 3.75171e-19)
(0.922068 0.0913539 -4.13562e-19)
(0.924266 0.133366 0)
(0.91253 0.142244 1.78723e-19)
(0.848572 0.118052 7.14559e-19)
(0.812316 0.0789919 -4.47704e-19)
(1.1501 3.3413 -7.09805e-19)
(1.19987 3.26116 0)
(1.14746 3.37076 -1.48068e-18)
(0.636722 3.53303 1.25426e-18)
(0.855973 3.10367 6.67062e-20)
(0.525042 0.779606 6.09929e-19)
(0.419824 0.777103 0)
(0.290929 0.331802 -1.47459e-19)
(0.484625 0.651727 8.55119e-19)
(0.575232 0.323609 -1.89078e-19)
(0.513743 0.463534 2.26884e-19)
(0.671914 0.519608 4.8334e-19)
(0.720705 0.561198 0)
(0.670533 0.572231 0)
(0.637542 0.529486 0)
(1.01239 0.621061 8.77337e-20)
(0.925621 0.56282 -5.11715e-19)
(0.951601 0.593943 3.85213e-19)
(0.980308 0.533667 -3.96937e-19)
(1.08983 0.50009 0)
(1.09887 0.591949 -9.63508e-20)
(0.856103 0.419013 -8.32794e-19)
(0.854225 0.407516 -1.0318e-18)
(0.782994 0.400184 6.31516e-19)
(0.792196 0.388565 -6.4187e-19)
(0.841762 0.344715 -5.21511e-19)
(0.786919 0.340462 6.37401e-19)
(1.02679 0.00620231 -4.97791e-19)
(1.02648 0.00643785 1.01349e-18)
(1.02957 0.000343557 6.31096e-19)
(1.03376 0.0012384 -7.60129e-19)
(1.03397 0.0093964 0)
(1.03024 0.0100821 -1.23672e-18)
(0.0644112 1.63837 1.95481e-20)
(0.0531684 1.59168 0)
(0.0914473 1.6873 1.32928e-19)
(0.0986476 1.66849 -1.17966e-19)
(0.0927808 1.55142 3.01943e-20)
(0.0920744 1.55334 0)
(0.0141918 1.69747 0)
(-0.00103385 1.51648 1.06711e-20)
(9.6831e-06 1.46334 -9.59029e-21)
(-0.00645392 1.56921 5.53581e-21)
(0.00332232 1.88712 1.56776e-20)
(-0.00859927 1.94064 -3.79525e-21)
(0.495137 1.35213 -2.8549e-19)
(0.492012 1.35172 3.1381e-19)
(0.455708 1.30608 -3.80403e-20)
(0.438028 1.28122 8.1706e-21)
(0.644317 1.31366 0)
(0.558538 1.40492 1.01056e-19)
(0.575014 1.41116 -9.83813e-20)
(0.47001 1.2996 3.71472e-20)
(0.525634 1.24511 0)
(0.576398 1.20645 0)
(0.651925 2.39959 5.89581e-19)
(0.667951 2.44122 1.26753e-18)
(0.712204 2.45193 -8.73469e-19)
(0.608348 2.42573 -2.02589e-19)
(0.558916 2.51578 2.8594e-19)
(0.508378 2.49088 -7.62211e-19)
(0.976372 2.36714 -5.75718e-19)
(1.00948 2.379 0)
(0.923228 2.16218 -6.59258e-19)
(1.05217 2.66619 0)
(1.05458 2.65273 0)
(0.58976 2.24904 -1.41187e-19)
(1.03174 3.14836 1.16421e-19)
(0.903148 3.01949 -1.8183e-20)
(0.253449 0.816623 0)
(0.27482 0.6538 -3.18602e-19)
(0.450088 0.615726 -3.22712e-19)
(0.370684 1.99243 0)
(0.457286 2.77562 -4.64406e-20)
(0.409046 2.53788 0)
(0.726005 0.671389 -8.37496e-19)
(0.809331 0.694659 1.11519e-18)
(0.828748 0.634689 -1.10146e-18)
(0.701608 0.637237 -1.06791e-19)
(0.754831 0.597169 -4.366e-19)
(0.996792 2.74569 -8.85528e-20)
(1.03974 2.81027 -1.74732e-19)
(0.62534 2.10703 7.28959e-19)
(0.576583 1.67636 -5.18372e-19)
(0.689772 1.88065 -4.18857e-19)
(0.983609 2.43052 -1.13556e-19)
(0.991483 2.42415 3.05405e-19)
(0.641605 1.81146 2.90674e-20)
(0.435137 1.29957 1.48157e-19)
)
;

boundaryField
{
    wall-4
    {
        type            noSlip;
    }
    velocity-inlet-5
    {
        type            fixedValue;
        value           uniform (1 0 0);
    }
    velocity-inlet-6
    {
        type            fixedValue;
        value           uniform (0 3 0);
    }
    pressure-outlet-7
    {
        type            zeroGradient;
    }
    wall-8
    {
        type            noSlip;
    }
    frontAndBackPlanes
    {
        type            empty;
    }
}


// ************************************************************************* //
