/*--------------------------------*- C++ -*----------------------------------*\
| =========                 |                                                 |
| \\      /  F ield         | OpenFOAM: The Open Source CFD Toolbox           |
|  \\    /   O peration     | Version:  2206                                  |
|   \\  /    A nd           | Website:  www.openfoam.com                      |
|    \\/     M anipulation  |                                                 |
\*---------------------------------------------------------------------------*/
FoamFile
{
    version     2.0;
    format      ascii;
    arch        "LSB;label=32;scalar=64";
    class       volScalarField;
    location    "98";
    object      p;
}
// * * * * * * * * * * * * * * * * * * * * * * * * * * * * * * * * * * * * * //

dimensions      [0 2 -2 0 0 0 0];

internalField   nonuniform List<scalar> 
918
(
0.560191
1.16698
-2.28477e-06
0.559662
-0.0126093
1.13394
-0.512726
0.653374
0.540401
-0.102998
-0.0543722
0.542311
0.994668
0.75905
-1.1243
-0.0136253
0.653333
-0.381026
0.539538
-0.0772145
0.673917
0.546932
0.549955
0.540531
0.599442
0.731561
0.875569
0.0328488
0.0142893
0.00848029
-0.0121215
-0.0387703
-0.033452
1.01761
1.06867
1.09137
0.508108
0.336017
-0.378083
-0.452747
-0.438122
-0.535655
0.654841
0.656125
-0.215894
0.654775
0.652223
0.5274
0.539772
0.540688
0.541693
0.540685
0.542062
0.405072
-0.10429
-0.135775
-0.0838585
-0.0768525
0.0506894
-0.0530184
-0.0537863
-0.053856
-0.055654
0.457154
0.536823
0.533454
0.546546
0.555829
1.10652
1.07848
1.10461
1.01819
1.0347
0.972685
0.945277
0.780875
0.802688
0.742951
0.730194
-1.55106
-2.49374
-0.539422
-0.291548
-0.0109305
-0.0118728
-0.00645291
0.650791
0.652049
0.653792
0.655097
1.08016
-0.377774
-0.48159
0.539684
0.538497
0.546796
0.547499
0.543521
0.54261
-0.0658003
-0.0623047
-0.0661708
-0.0717208
-0.0699734
0.646485
0.653371
0.541057
0.538058
0.563527
0.584234
0.573887
0.279681
0.610155
0.62622
0.567076
0.726601
0.719166
0.728783
0.849217
0.812044
0.912726
0.936064
0.0204154
-0.000370004
-0.0179157
-0.0210136
-0.0201781
0.503934
0.496464
0.524373
0.511548
0.514059
0.25382
0.121784
0.420173
0.444415
-0.297788
-0.366554
-0.430522
-0.46008
-0.567898
0.615646
0.656965
0.653988
-0.225104
-0.152999
-0.28828
-0.0795725
-0.143117
0.517644
0.524673
0.519662
0.535241
0.529702
0.531668
0.544052
0.54112
0.54268
0.467003
0.590143
0.331466
0.295733
-0.242249
-0.150913
-0.240292
-0.0666888
-0.0640448
0.065297
0.0912994
0.0370209
0.024918
-0.0599735
-0.0557051
-0.0576761
-0.055453
-0.0572381
0.449859
0.438573
0.469876
0.477454
0.52359
0.525009
0.529382
0.527464
0.896231
0.918609
0.926022
0.899829
-3.4739
-6.23795
0.0294766
0.164694
-0.00696744
-0.0102688
0.00180379
-0.0064242
-0.000708578
-0.0023522
-0.0113516
-0.0128565
-0.00784907
-0.00662157
0.646049
0.646535
1.00355
1.01182
0.977986
0.931285
0.527973
0.530006
0.535477
0.531378
-0.0582186
-0.0605341
-0.0589476
0.652342
0.650394
0.651726
0.240925
0.150535
0.331017
0.360369
0.639887
0.62937
0.63838
0.627197
0.661847
0.943472
0.961558
0.95988
0.968093
1.01217
1.02861
0.993888
0.483312
0.49333
0.488258
0.527191
0.525108
0.525948
0.522402
0.52338
0.521531
-0.0276588
-0.404662
0.49085
0.50685
0.493553
0.494954
0.696197
0.775344
0.654846
0.65563
0.655066
-0.00951175
-0.0681748
0.250689
0.216157
0.389041
0.425668
0.40448
0.867379
0.827687
0.877806
0.851295
0.812622
0.838859
-0.356393
-1.84569
-0.970235
0.510522
0.327019
0.413207
0.00638573
-0.0107012
-0.00584885
1.00431
1.07517
0.645826
0.821193
0.823091
0.698732
0.729092
0.785122
0.709511
0.745229
0.780988
0.762437
0.570932
0.503929
0.520985
0.844384
0.899981
0.119797
0.0570862
0.0133409
0.110691
0.168644
0.142351
1.03487
0.953196
1.02286
0.537821
0.538547
-0.00948773
-0.0276883
0.542815
0.542872
-0.0143382
-0.0038652
0.396444
-0.831564
0.0973051
0.531431
0.521251
0.538419
-0.0888591
0.356559
-0.0536978
0.047099
-0.0119706
0.532755
0.468328
0.427309
-0.00419495
-0.0232748
-0.0656471
-0.210209
0.53549
0.533794
0.537886
0.538821
0.539506
-0.0233414
-0.0198226
-0.0127111
-0.0598079
-0.0524341
-0.0677005
0.502276
0.521351
-0.169726
0.538038
0.540178
0.539994
0.533283
0.5389
0.537162
-0.0141468
-0.0182643
-0.0207188
0.220478
0.353811
0.631597
0.716375
0.603849
0.383386
0.150922
0.537887
0.599714
0.507197
0.658591
0.652148
0.651115
0.162771
0.0117669
0.172241
0.114033
0.529284
0.528023
0.5195
0.516453
0.533286
0.531395
0.535964
0.532995
0.535949
0.537325
-0.0452874
-0.0713262
-0.0813121
-0.147396
0.311538
0.571618
0.256664
0.285719
0.142023
-0.0490369
-0.050628
-0.051088
-0.0576446
0.000747033
-0.0277718
0.0413518
0.0406364
0.0107752
-0.0147472
-0.0104098
-0.022472
-0.014815
0.526039
0.52593
0.530816
0.539363
0.478016
0.481794
0.446487
0.467377
0.452511
0.39089
0.426581
0.401661
-0.00912177
-0.00226931
-0.00572873
-0.0217076
-0.0179828
-0.0398347
-0.0375428
-0.0317235
-0.0286807
-0.0363643
-0.058722
-0.0623594
-0.167805
-0.284445
0.990156
0.909209
0.144139
0.524628
0.531094
0.52785
0.532793
0.535924
0.536717
0.534417
0.53096
0.521689
0.523389
0.51992
0.520858
-0.10007
-0.242813
-0.070867
-0.147084
0.149337
0.631063
0.365711
0.300547
0.296081
0.525757
0.896752
0.678001
0.647707
0.637529
-0.34717
0.0353963
-0.286214
0.32343
0.158057
0.63409
0.682411
0.703195
0.651788
0.605431
-0.0939199
0.558988
-0.0754491
-0.0222931
0.180461
0.0543079
0.638574
0.641005
0.646901
0.642665
0.651829
0.643225
0.624257
0.626202
0.642605
0.648431
0.481705
0.251149
0.201328
0.16282
0.645499
0.515774
0.564573
0.490794
0.524512
0.527114
0.525792
0.507112
0.514708
0.510222
0.516806
0.520343
0.528989
0.529472
0.524717
0.526849
-0.0519924
-0.0577821
-0.0223589
-0.13238
-0.124732
-0.187753
-0.0565162
0.0795005
0.0409585
0.240615
0.344049
0.0559394
-0.0536521
-0.0265124
0.0175543
0.183902
0.212446
0.0765104
0.162586
0.155864
0.136026
0.238927
0.241489
-0.0302805
-0.0307894
-0.034916
-0.0386778
0.0184865
0.0903602
0.0993909
-0.0112725
-0.0148305
-0.0490391
-0.0520773
-0.0204775
-0.0255204
-0.021234
0.00664658
-0.0557742
-0.0237557
-0.0100092
-0.0117787
-0.0106747
-0.0155035
0.520718
0.522481
0.522699
0.531685
0.543856
0.558546
0.524071
0.500283
0.49104
0.494046
0.466951
0.477294
0.4731
0.486783
0.50805
0.516568
0.514902
0.517727
0.500053
0.501756
0.488259
0.491949
0.466954
0.447525
0.435453
-0.0464577
-0.00909113
-0.0170566
-0.0416763
-0.0127783
-0.0241629
-0.0150928
0.00399399
-0.0130092
-0.0136517
-0.0234483
-0.032406
-0.032378
-0.0693587
0.0184485
-0.18282
-0.217213
-0.291116
0.892852
1.01676
0.811292
0.58471
0.605899
0.848825
0.932565
0.544245
0.736907
0.759607
0.589848
0.858431
0.529482
0.529075
0.526674
0.526149
0.52737
-0.00345427
0.104196
0.0996352
0.165321
0.281083
0.391367
0.326685
0.20061
0.329935
0.332356
0.623137
0.634879
0.591653
0.615973
0.616957
0.427532
0.503181
0.554831
0.515865
0.568351
0.590153
0.543934
0.577385
0.52613
0.481325
0.477416
0.427235
0.446699
0.422192
0.405416
0.520105
0.496727
0.507647
0.49777
0.519879
0.545947
0.543077
0.565864
0.580884
0.500509
0.455641
0.464879
0.495075
0.456742
0.472215
0.488039
0.239179
0.142256
0.224887
-0.059091
0.00801461
-0.00291489
-0.0524735
0.000834319
0.284481
-0.404108
-0.381073
-1.0044
0.509544
0.93896
0.555919
0.534563
0.651656
0.639997
0.64425
0.660945
0.654675
0.633864
0.641746
0.646494
0.591842
0.613148
0.627406
0.624753
0.526959
0.381461
0.381445
0.328747
0.19879
0.23926
0.434666
0.359214
0.284347
0.284395
0.458693
0.34475
0.415557
0.447927
0.378927
0.333532
0.537259
0.602966
0.596022
0.570188
0.479429
0.490899
0.516026
0.549553
0.57293
0.60772
0.516215
0.522173
0.5234
0.520872
0.518139
0.521236
0.521489
0.524066
0.524686
0.527702
0.526768
-0.0494946
-0.0360978
-0.0464698
-0.0578879
-0.0140628
-0.0165979
0.0267575
0.0141416
-0.0132665
-0.0087693
-0.0294681
-0.0336113
-0.0308721
-0.0236551
0.106295
0.118677
0.102997
0.0636952
0.255243
0.384018
0.45847
0.333718
0.22866
0.252407
0.270572
-0.01053
0.013671
0.00131972
0.0410026
0.0337863
-0.0410295
-0.0460018
-0.0437178
-0.0325997
-0.0244671
-0.0471347
-0.0558278
-0.0442003
-0.0483083
-0.0509699
-0.0575874
0.502563
0.496052
0.497648
0.491602
0.490313
0.504519
0.508823
0.510825
0.516366
0.518601
0.508653
0.514082
0.518029
-0.0171893
-0.0408774
-0.0433341
-0.0381966
-0.0384677
-0.0368094
-0.0395702
0.129066
0.0613401
0.0647334
0.0166281
-0.11775
-0.0591938
0.496133
0.493208
0.481126
0.724991
0.574668
0.495316
0.591499
0.697507
0.282543
0.477374
0.313679
0.891385
0.7887
0.93465
0.54621
0.252349
0.41933
0.457438
0.274571
0.353041
0.325512
0.215744
0.245975
0.286758
0.383572
0.270992
0.249347
0.00589789
0.19647
0.306107
0.288259
0.410715
0.469967
0.274101
0.192814
0.147829
0.607368
0.626632
0.639867
0.612276
0.634885
0.584448
0.576273
0.591752
0.600064
0.593506
-0.734077
-0.440469
-1.38871
-0.718205
-0.259923
0.539434
0.516559
0.773
0.642923
0.668407
0.653511
0.617873
0.589618
0.614713
0.634707
0.340176
0.451143
0.425947
0.432589
0.335336
0.264891
0.564391
0.562054
0.595816
0.61974
0.590562
0.621345
0.51402
0.513739
0.513205
0.509443
0.507704
0.510048
0.061589
0.0289336
0.0705238
0.0530615
0.0308526
0.0188998
-0.0189069
-0.0293565
-0.0349944
-0.0337507
-0.0191833
-0.0155038
0.178791
0.114611
0.0353074
0.0634993
0.00215982
-0.0662955
-0.0862743
0.0211513
0.117646
0.107654
0.41039
0.658448
0.478945
0.645958
0.489378
0.544758
0.469583
0.460671
0.484615
0.383388
0.464079
0.263024
-0.246038
-0.15647
0.797636
0.807844
0.582004
0.411905
0.177878
0.350178
0.541318
0.469967
0.504707
0.572983
0.559443
0.040348
0.0941829
0.392435
0.619388
0.247814
0.23819
0.231819
0.419775
0.336249
)
;

boundaryField
{
    wall-4
    {
        type            zeroGradient;
    }
    velocity-inlet-5
    {
        type            zeroGradient;
    }
    velocity-inlet-6
    {
        type            zeroGradient;
    }
    pressure-outlet-7
    {
        type            fixedValue;
        value           uniform 0;
    }
    wall-8
    {
        type            zeroGradient;
    }
    frontAndBackPlanes
    {
        type            empty;
    }
}


// ************************************************************************* //
