/*--------------------------------*- C++ -*----------------------------------*\
| =========                 |                                                 |
| \\      /  F ield         | OpenFOAM: The Open Source CFD Toolbox           |
|  \\    /   O peration     | Version:  2206                                  |
|   \\  /    A nd           | Website:  www.openfoam.com                      |
|    \\/     M anipulation  |                                                 |
\*---------------------------------------------------------------------------*/
FoamFile
{
    version     2.0;
    format      ascii;
    arch        "LSB;label=32;scalar=64";
    class       surfaceScalarField;
    location    "98";
    object      phi;
}
// * * * * * * * * * * * * * * * * * * * * * * * * * * * * * * * * * * * * * //

dimensions      [0 3 -1 0 0 0 0];

oriented        oriented;

internalField   nonuniform List<scalar> 
1300
(
3.75095
5.62643
-3.25486
3.75095
-7.75576
5.62643
-4.41721
4.41721
-0.354143
0.354143
1.87638
1.87457
-2.70044
2.70044
-2.0253
2.0253
-2.52131
2.52131
-5.24639
5.24639
-5.06919
5.06919
4.64774
-4.64774
-6.31879
6.31879
-0.935665
0.935665
-3.7009
3.7009
3.16957
-3.16957
-1.90222
1.90222
0.0880873
-0.0880873
-0.553467
4.30442
3.19749
3.19749
-2.00592
2.00592
-4.86959
4.86959
6.21791
-6.21791
5.23376
-5.23376
-1.9789
-2.49546
1.80106
-11.4586
-5.95469
-5.95469
-8.44037
8.44037
-2.81394
2.81249
2.94647
-2.94647
-1.76029
1.76029
-4.38064
-0.036569
-4.38064
4.38595
0.0312668
4.38595
-0.456176
0.102033
-0.456176
4.01947
-4.01947
0.248503
0.10564
0.248503
3.06541
-3.06541
-1.87712
3.75351
1.87383
-1.8719
6.17633
-1.87905
3.75362
-6.00885
6.00885
-2.94704
0.246602
-2.94704
2.48719
0.213253
2.48719
-6.84912
6.84912
-2.08471
0.0594139
-2.08471
1.97098
0.0543214
1.97098
2.88226
-2.88226
-2.62755
0.106238
-2.62755
2.39243
0.128881
2.39243
0.353504
5.27293
-5.97993
8.79243
-5.27293
0.0265328
5.20828
0.0381097
5.20828
-5.10605
0.0368654
-5.10605
5.01358
0.0556063
5.01358
4.72982
-0.0820807
4.72982
-4.76845
0.120709
-4.76845
-3.36839
-4.05572
-6.46895
0.150159
-6.46895
-1.02516
0.0894987
-1.02516
0.823036
0.11263
0.823036
-3.68579
3.68579
-4.12371
0.422814
-4.12371
3.12394
0.0456325
3.12394
1.86849
1.88247
5.61944
-5.61944
2.44987
-1.87487
-0.02735
-1.87487
-1.97882
-3.25494
1.97882
-0.0765986
-0.161657
0.249744
-0.161657
3.15945
0.038032
3.15945
2.23514
0.157288
-2.23514
0.229221
3.28144
-3.28144
1.33428
0.671637
1.33428
-5.56378
5.56378
4.95708
0.0564985
-4.95708
0.0874912
6.15647
0.0614351
6.15647
-6.19956
-0.0183456
-6.19956
2.53048
-5.02594
-2.66443
6.13691
0.181878
-6.13691
0.182219
2.91847
0.0279971
2.91847
-2.91773
2.91773
-2.98487
0.0384059
-2.98487
-2.15941
0.399121
-2.15941
1.46193
0.298362
1.46193
-4.28278
-0.097865
-4.28278
-4.27478
0.151073
4.27478
0.111163
1.12596
-1.12596
-0.587997
0.131822
-0.587997
-4.14631
-0.136467
4.14631
-0.126841
-3.90573
-0.113744
-3.90573
-3.02464
0.0397656
3.02464
0.0407652
3.11291
0.0465412
-3.11291
0.0475075
-1.87081
3.75328
-1.88014
3.75397
-5.62981
-0.379035
-5.62981
6.31968
-0.310829
6.31968
3.34204
0.35886
-3.34204
0.394991
2.31487
0.172324
2.31487
-6.8093
-0.0398154
-6.8093
6.83627
0.0128491
6.83627
2.18158
0.133287
-2.18158
0.0968645
1.92428
0.0466947
1.92428
2.90304
-0.0207718
2.90304
-2.87609
-0.00617499
-2.87609
2.79007
-2.79007
2.71502
0.0750534
-2.71502
0.0874695
-11.133
11.1146
-0.0350955
-11.0979
5.17319
5.17319
4.1537
0.576121
4.1537
-4.98885
0.220401
-4.98885
2.70242
-5.36685
3.1091
-6.47748
4.65735
-16.116
4.28295
-8.33867
6.70668
-6.70668
6.59684
0.109835
-6.59684
0.127897
-1.14372
0.118559
-1.14372
-3.0856
-0.600186
-3.0856
4.32583
-0.640039
4.32583
-3.02783
3.02783
-3.07733
0.049502
3.07733
0.0466072
1.88511
0.0391774
-1.88511
0.0102391
0.185123
0.0633792
-0.185123
0.0234662
3.49721
-0.215774
3.49721
-3.08171
-0.199729
-3.08171
-1.24401
0.100285
1.24401
0.0902734
-5.81277
0.248994
-5.81277
-11.1909
0.0929899
-11.1528
-6.10657
-6.10657
2.3338
11.1262
-2.89389
0.0178009
2.89389
0.0245815
2.97427
0.0535655
-2.97427
0.0565328
-2.85691
0.0668447
2.85691
0.0608203
-2.53445
0.375036
-2.53445
-1.06308
1.06308
-1.22644
0.163361
1.22644
0.235488
1.40102
-0.27506
1.40102
0.707832
0.115204
-0.707832
0.119834
-3.80215
-0.103579
-3.80215
6.55552
-0.235845
6.55552
-2.96567
-0.116034
2.96567
-0.0626377
-0.0333527
11.148
-5.13984
0.0337812
5.13984
-11.2094
11.2432
-3.20463
0.670187
3.20463
0.949065
5.28377
0.280007
-5.28377
0.294925
6.7887
0.0475727
-6.7887
0.0820168
-2.59312
-0.492482
-2.59312
-5.04933
-0.580483
5.04933
-0.723502
-11.4737
-0.205653
11.6794
-11.4181
6.01843
0.138046
-6.01843
11.3812
-1.02343
-0.102528
1.02343
0.0396515
1.73026
-0.329247
1.73026
3.69671
-0.199498
-3.69671
-0.105439
-6.71073
-0.0985685
6.71073
-0.155214
-2.14792
-0.445196
2.14793
-0.417663
-4.26714
4.30517
1.90919
-2.37822
-2.64772
-5.63316
1.85184
1.90144
4.30171
-10.1173
-5.99869
-9.93504
7.26081
-6.96588
-9.2301
9.14802
7.91571
-8.02946
-5.78465
5.83125
6.483
-6.44224
1.87885
1.87466
8.04833
-7.80173
-15.5534
15.1744
7.58905
-7.52964
15.707
-15.7468
-17.7889
17.8365
-5.70731
5.81355
-6.741
6.73483
-6.97736
6.91472
-2.8379
-3.63958
13.0733
-12.9231
8.6648
-8.69215
-8.64885
9.07166
3.38261
0.922561
3.42915
-1.88213
3.76098
-1.87149
3.78068
2.7601
-5.598
2.60675
-5.25447
4.40575
4.25905
-4.32915
-1.30401
-5.92503
5.95302
-5.81431
5.87513
9.17242
-9.20899
-1.88518
3.75984
-1.86879
3.77023
-3.42499
-2.35966
3.37936
0.922347
8.04522
5.02805
-8.2271
-1.70794
-8.05118
7.85168
-8.23596
8.03623
-0.433016
5.81949
-5.38647
4.43658
-1.56687
7.38636
5.69393
5.91433
5.86603
-5.58603
1.09985
-6.48632
-6.39883
-2.20257
2.33439
2.085
-1.97936
6.16727
1.74844
6.04043
-5.77291
-2.25655
-5.87649
3.82034
2.01091
3.86985
4.07857
2.40443
4.11834
3.03039
-3.03602
0.00563779
-3.05674
6.08712
0.723812
-5.41639
-4.49404
4.98988
3.05845
5.20313
-5.57304
-2.22869
-5.17805
-9.50896
-6.04447
-10.0894
10.0507
5.12368
9.73989
-11.917
11.7618
4.816
2.77305
4.87032
-4.9657
-2.56394
-4.86884
11.6222
-2.64784
-8.97434
-10.2842
-7.50475
10.2713
5.43565
10.9274
6.90907
11.0094
4.41317
7.209
-9.84883
2.34408
-3.86838
-1.83893
-3.78091
3.67595
2.13759
3.80483
-4.21771
-2.52329
-4.19991
-4.29603
-2.68133
4.3168
2.41803
-4.41859
-3.81738
4.53462
2.3801
4.03525
-10.0339
4.30342
-7.943
-9.167
-3.75611
-9.0391
3.56172
2.61564
-6.17736
-2.03628
8.59476
-4.33571
7.29075
-5.22196
-3.47019
-5.21172
-6.90867
-1.74018
-6.75759
-8.85066
8.35818
-9.14634
8.5063
12.4688
-5.62582
-6.84302
-3.96848
-2.47375
3.92097
-0.491825
-3.71045
3.71609
0.0505234
3.8312
4.75376
4.26194
-3.88508
-1.92923
-3.82855
3.82508
2.05005
3.89193
6.8629
2.30952
6.89416
-6.63708
-2.57191
-6.73494
9.01212
-8.613
2.83047
-2.73018
5.40365
2.63258
-5.18788
-2.8633
6.2079
-3.22023
-2.98766
-12.2077
10.5216
1.68606
-4.82131
-0.384732
-0.472819
-5.48363
-3.74647
5.36292
0.551412
11.073
7.32655
-5.51262
5.76161
6.16674
6.22324
-0.175588
5.78868
-5.1185
5.2591
-2.61695
-2.64215
5.49374
-5.63021
-1.24121
-5.54824
4.30703
0.410225
1.38598
-1.13624
-1.74682
-0.455749
-1.62699
1.17647
0.908534
1.23985
0.959061
1.37533
-2.93342
0.501994
2.43143
-1.97436
-1.47737
-3.86356
-1.13406
4.99762
5.74875
2.10293
-5.64331
-0.233175
2.50788
-2.39525
-0.818136
-3.04542
2.22832
-3.04646
-3.66355
-2.09894
5.76249
-3.36984
-0.458712
3.31627
0.553572
-3.82731
-2.09772
3.7889
0.329433
-3.12835
6.19088
-3.06253
-5.05758
2.52742
3.5597
4.53833
-4.78958
2.44785
2.34173
-1.22988
4.25452
0.948608
4.42685
-6.96988
4.7412
5.82432
3.24734
-6.18318
1.00513
-5.96475
8.55278
-7.3812
-1.17157
4.17061
4.38216
7.03598
5.43286
-5.65447
12.6904
-1.20808
-6.17313
7.17283
-3.92549
4.85986
-8.78535
-10.2927
4.1196
-9.09903
10.8722
-1.77319
-3.61236
-8.30468
12.7114
-1.19937
-11.512
8.54053
-4.29838
-4.42235
8.72073
-6.94622
6.98629
-1.99337
-4.99292
-10.0688
-5.67802
10.1673
1.59449
-9.94533
12.2894
-2.73634
4.12268
0.747638
4.16938
3.30841
-5.49406
2.18565
3.63781
-5.63117
2.07924
-7.5733
-6.70997
12.0412
-5.33122
-10.4661
-9.48574
-0.98034
2.53567
9.75374
-9.44474
7.40558
2.03916
3.30086
0.591072
-3.37591
-0.405002
0.233343
4.51287
-4.74621
4.03818
4.19546
3.26233
1.25054
3.84574
2.10729
-3.87032
-0.329591
-4.1643
1.48297
-1.74627
-3.69541
5.17838
-4.06757
0.37216
-2.74421
-3.49762
6.24184
-4.58314
3.03465
3.15623
5.0847
-4.91373
1.41611
-2.3927
-2.52103
2.65147
-4.39774
1.99518
3.1832
4.37528
0.557902
5.8688
6.17239
-8.48444
0.541441
11.2004
-9.4925
2.45659
8.55285
-9.86217
0.376423
-8.66268
1.00754
-5.34325
-5.16982
5.2123
-6.95248
-3.57304
6.23454
0.659625
-6.3457
-0.411893
-6.01476
-2.8359
-6.45996
-3.03414
-6.1122
-8.68861
-1.64579
-7.04282
6.71238
-6.66082
-3.42862
7.38432
1.12198
-7.38846
7.28593
-7.46592
7.13667
0.0954873
3.6206
4.35742
1.88367
-2.39072
4.27439
-5.13456
7.44408
-8.74729
3.61273
4.22016
-6.79207
-4.52712
5.00417
4.00795
5.30253
8.85738
-10.3185
1.46108
-10.6169
11.9482
-1.33136
-16.3628
5.74593
-7.50543
2.43251
0.397958
2.55107
0.540762
2.4985
-3.03927
-2.18942
-2.09915
-2.44356
-3.46503
5.90859
1.08255
-3.53264
2.45009
-3.56727
4.64982
-0.221372
-3.31127
5.26518
-2.76668
5.66314
-3.78864
1.8745
3.44122
5.75484
-2.31362
4.39614
-1.76356
1.93218
-4.2458
-1.53284
-2.95417
5.09177
-3.28766
3.65982
-0.345556
4.00538
-4.04584
0.825601
-0.783506
3.41196
3.64118
4.31734
-3.0668
2.91613
-4.67968
-1.32968
-4.12178
-0.938582
-0.254258
-3.68639
3.94065
5.95768
-6.21194
-5.22468
9.50568
-4.281
7.67396
-5.37112
-2.30284
-4.23756
-4.37544
3.86253
1.92615
9.60012
0.205814
-5.57693
-4.91268
-3.96362
3.09885
2.16025
-1.68928
3.37534
2.1621
-0.776117
0.43564
0.804205
1.75986
-1.32422
0.308566
1.4513
-0.827672
1.69236
0.815524
-1.80756
0.180575
-1.35346
3.58179
1.07796
-1.9865
0.662275
0.983582
-3.60053
5.08441
-2.692
-2.39242
6.068
1.14639
-3.83838
4.40185
-3.99163
2.40762
-3.54168
-1.43077
-5.42239
-3.67395
-2.51429
4.96438
-3.3943
5.49723
1.30083
-5.26406
6.56488
-3.73055
1.63161
-3.03909
3.85461
-0.919268
-2.11982
2.9005
2.86199
-3.09073
0.045304
-0.190225
2.40135
-2.59158
-0.645108
-2.61947
-4.57375
4.90318
-2.10507
4.55292
2.16932
-1.91735
6.47027
1.80863
-3.72598
-3.24895
-3.70766
-1.38424
3.15409
-0.568113
-4.30072
-5.56104
4.16744
0.25941
-7.08666
7.90495
-0.818291
-4.02821
-0.712986
4.8836
-6.09977
0.468596
-4.02053
3.88442
4.83303
5.09244
-11.2918
-0.220214
-6.16813
1.11923
-7.28735
5.50139
-3.5237
7.64329
-10.2887
6.86011
-9.16675
6.47172
-0.815632
6.23214
-4.04649
2.7422
-8.42022
-6.82573
5.57415
-2.8011
6.32179
-3.1833
9.50509
-5.91964
5.35363
4.15145
-1.01858
-4.19315
-5.36904
4.35046
-0.0154059
4.15397
4.98049
-2.87321
4.6509
2.27013
-4.66282
-2.12761
-6.49623
1.8334
-3.34
-1.92141
3.75482
3.16329
3.75436
1.23378
-3.34936
7.19909
-8.17943
-1.86787
-3.30195
5.36237
-1.01191
3.45106
-6.75301
-1.89218
4.7737
-0.776442
-3.99726
0.85212
-4.42516
1.67893
-6.10409
5.27356
-5.68545
2.21983
-9.72526
-5.16863
-5.12898
-2.25535
-5.21056
-7.54624
5.29088
-1.80031
5.48562
-8.4746
7.69816
-3.47364
8.76453
-5.41084
-1.04911
5.82851
1.30817
10.0727
0.227543
-4.75466
-1.92715
3.82361
-1.89646
1.17171
-3.45885
0.364756
2.50504
3.56296
-6.81207
0.0199971
-4.73467
-3.90725
7.91521
5.59843
11.5561
1.23765
9.09314
-1.17794
10.3308
4.12459
4.36008
-2.97454
4.43562
0.966115
4.57884
-0.927126
2.80163
1.62394
1.71344
0.68181
2.30374
1.33743
3.12935
0.0900792
-2.00907
4.61462
-8.57823
-0.962317
-8.00211
1.14591
5.70176
-4.55585
2.9003
-0.740049
1.00383
-0.140561
-1.1412
1.28176
-2.78271
-1.91732
-0.466021
-1.68703
2.34931
1.89475
-1.88329
-0.89942
0.348319
-4.02227
3.19336
-3.14806
-0.286063
6.27882
-2.81372
0.222149
-1.18212
-2.39732
-2.85307
2.67249
6.1764
0.293866
3.11387
5.19704
3.09933
0.226122
3.88027
-5.65346
-3.69303
-5.87367
-0.372281
4.51132
1.76223
7.99151
5.91369
4.90177
-1.85124
-10.0307
6.49837
-2.06275
5.16701
-1.16974
-4.93435
5.06355
2.38053
-5.72317
0.0377242
-4.89662
-6.95937
-0.509278
8.20743
-9.56341
8.5143
5.6784
1.36442
-4.38869
-0.740284
4.22533
0.134753
10.4655
-1.13188
-6.68775
7.81963
-4.56988
3.60756
0.730465
2.64488
2.01223
1.27218
-5.41558
-9.97143
-2.07254
-1.52799
-4.46496
0.532659
-2.42741
6.20855
-2.60099
3.90571
5.21864
6.22248
-2.12694
-4.085
6.40795
-2.50223
3.72024
)
;

boundaryField
{
    wall-4
    {
        type            calculated;
        value           uniform 0;
    }
    velocity-inlet-5
    {
        type            calculated;
        value           uniform -3.75095;
    }
    velocity-inlet-6
    {
        type            calculated;
        value           uniform -5.62643;
    }
    pressure-outlet-7
    {
        type            calculated;
        value           nonuniform List<scalar> 8(3.25486 7.75576 4.47436 9.65754 7.42411 5.19492 5.81151 8.94029);
    }
    wall-8
    {
        type            calculated;
        value           uniform 0;
    }
    frontAndBackPlanes
    {
        type            empty;
        value           nonuniform List<scalar> 0();
    }
}


// ************************************************************************* //
