/*--------------------------------*- C++ -*----------------------------------*\
| =========                 |                                                 |
| \\      /  F ield         | OpenFOAM: The Open Source CFD Toolbox           |
|  \\    /   O peration     | Version:  2206                                  |
|   \\  /    A nd           | Website:  www.openfoam.com                      |
|    \\/     M anipulation  |                                                 |
\*---------------------------------------------------------------------------*/
FoamFile
{
    version     2.0;
    format      ascii;
    arch        "LSB;label=32;scalar=64";
    class       volVectorField;
    location    "98";
    object      U;
}
// * * * * * * * * * * * * * * * * * * * * * * * * * * * * * * * * * * * * * //

dimensions      [0 1 -1 0 0 0 0];

internalField   nonuniform List<vector> 
918
(
(0.98516 -0.000508464 0)
(0.00501706 2.96625 0)
(0.0103154 0.874163 0)
(0.979705 0.00214492 0)
(-0.0124101 2.06247 3.75943e-20)
(-0.00705219 2.9488 -2.42627e-18)
(0.824695 1.1714 4.50393e-19)
(0.105921 0.0784876 -1.45922e-20)
(0.999909 -0.000275499 0)
(0.0666327 0.743491 0)
(0.0206214 0.48166 0)
(0.731842 0.00728593 0)
(0.0111408 2.93034 0)
(0.00284982 2.79537 0)
(-0.0180404 3.1447 7.8292e-19)
(-0.0207742 1.92003 1.19848e-20)
(0.286515 0.0628814 1.02129e-18)
(0.190304 1.1492 3.16028e-19)
(0.962709 0.00501244 0)
(0.00846271 0.404666 0)
(-0.0059817 0.0241634 -6.68119e-19)
(1.00197 -0.00497408 0)
(1.00023 -0.00978302 0)
(0.975741 -0.00643822 0)
(0.598026 0.0313678 0)
(0.0140592 2.64255 0)
(-0.0147983 2.90997 8.89606e-19)
(0.0178302 0.918428 0)
(-0.0205313 1.18492 0)
(0.0207624 0.90223 0)
(-0.0157933 2.58375 0)
(-0.00138699 2.11637 -3.00257e-20)
(-0.0112174 1.89986 0)
(-0.0205927 2.98761 -8.70839e-23)
(-0.0166788 3.00529 1.88544e-18)
(0.00210036 3.00016 0)
(0.871485 -0.00966253 0)
(0.398859 0.926695 1.8253e-19)
(0.811387 1.18485 -5.1441e-19)
(0.962844 1.03116 5.61831e-19)
(0.678792 1.27678 -1.05131e-19)
(0.678065 1.25105 6.01274e-19)
(0.135048 0.118727 1.42342e-20)
(0.14085 0.0604041 0)
(1.16835 0.567279 0)
(0.0992642 0.091477 6.41395e-20)
(0.0739785 0.0557673 -6.65697e-20)
(0.919932 -0.00745814 0)
(1.00027 0.000162943 0)
(0.999909 0.000340081 0)
(1.00363 -0.00775689 0)
(1.00096 -0.000916649 0)
(1.00017 3.85568e-05 0)
(0.0725793 1.8253 -7.74276e-19)
(0.0330143 0.946225 0)
(0.0986076 0.823261 0)
(0.0151313 0.893146 0)
(0.0417062 0.662368 0)
(0.00740096 2.0159 0)
(0.00305217 0.770283 0)
(0.0202793 0.504892 0)
(-0.00142913 0.757429 0)
(0.0143926 0.460276 0)
(0.842251 -0.0156528 0)
(0.842367 0.027255 0)
(0.757663 0.00419134 0)
(0.800694 0.0295632 0)
(0.700813 0.0193606 0)
(0.0146801 3.00041 8.98787e-19)
(0.0114843 3.00813 0)
(0.00609754 3.00273 0)
(0.0135513 2.99739 1.01881e-23)
(0.00794697 2.95847 -1.33582e-18)
(0.0144967 2.98197 0)
(0.0108981 2.90357 0)
(0.0241937 2.93065 2.03052e-24)
(0.00473321 2.82527 0)
(0.0306484 2.91668 0)
(-0.00476036 2.74612 0)
(0.302798 3.53471 0)
(-0.131425 3.61482 0)
(0.136317 3.23438 -7.28569e-19)
(-0.0142658 2.97475 0)
(-0.028164 1.98688 0)
(-0.00707424 2.17026 -1.18206e-20)
(-0.0145906 1.92852 6.52863e-21)
(0.337208 0.137166 -3.5456e-19)
(0.317303 0.0381383 -3.44668e-19)
(0.291318 0.139842 -1.0621e-18)
(0.24978 0.0683273 -6.89818e-19)
(0.22983 0.986057 0)
(0.273723 1.29842 -3.68312e-19)
(0.369295 1.23473 6.15006e-19)
(0.987419 0.00858356 0)
(0.941839 0.00580274 0)
(1.0003 0.000581829 0)
(1.00286 0.00931052 0)
(1.00301 0.00847662 -2.76048e-18)
(0.991906 0.00969269 2.08461e-18)
(-0.0100774 0.745711 0)
(0.0137853 0.41571 0)
(-0.0557621 1.00885 0)
(-0.0321357 0.796217 0)
(0.00071246 0.404708 0)
(-0.0865244 0.0929217 2.07323e-19)
(0.0493614 0.0650935 0)
(0.993556 -0.00836846 0)
(0.954475 -0.00653436 0)
(0.743425 0.0302317 0)
(0.677799 0.0288364 0)
(0.660695 0.0266212 0)
(0.973098 -0.00704825 0)
(0.584973 0.074035 0)
(0.458691 -0.000621261 1.54841e-18)
(-0.0371392 2.8616 6.48745e-19)
(0.0406697 2.91049 0)
(0.0534226 2.88641 0)
(-0.00431622 2.70134 0)
(-0.0131962 2.98512 8.40972e-19)
(-0.0178051 2.89492 0)
(-0.0154562 2.98804 -2.61057e-18)
(-0.0132265 2.92516 8.94399e-19)
(-0.0395717 1.35693 0)
(-0.00844171 1.38978 0)
(-0.00729203 2.13555 5.77006e-22)
(-0.00637725 2.09716 0)
(-0.0231129 1.90748 0)
(0.938718 -0.00734805 0)
(0.857693 -0.0099743 0)
(0.862532 0.00575387 0)
(0.949682 -0.00778212 0)
(0.88415 -0.00820248 0)
(0.50972 1.11923 -2.30266e-19)
(0.559113 1.17046 0)
(0.36371 0.871265 3.38541e-20)
(0.306996 0.730351 0)
(0.925037 1.06723 -1.55077e-19)
(1.0446 0.876491 3.17019e-19)
(0.361716 1.3611 0)
(0.530575 1.33252 0)
(0.551268 1.27154 0)
(0.121261 0.182964 -3.0402e-19)
(0.163044 0.116062 0)
(0.174321 0.0998402 1.89842e-19)
(1.01515 0.930748 0)
(1.08932 0.783634 0)
(1.11476 0.725307 -2.53025e-19)
(1.1477 0.626887 0)
(1.19743 0.409412 5.79389e-20)
(0.957817 -0.00867912 0)
(0.962547 -0.010019 0)
(0.901814 -0.00798949 0)
(0.984213 -0.00913954 0)
(0.974729 -0.00932114 0)
(0.937155 -0.00637566 0)
(1.00019 0.0023413 0)
(1.0009 0.00141828 0)
(0.999909 0.000855997 0)
(0.035567 2.07008 4.28921e-19)
(0.118281 1.76836 0)
(0.0182479 2.18334 6.59983e-19)
(0.0458426 1.87958 -5.50203e-19)
(0.107494 1.15149 -2.58773e-19)
(0.0503953 1.02748 0)
(0.144559 0.989453 0)
(0.00910609 0.845203 0)
(0.0213875 0.598089 0)
(-0.000695933 2.24013 -8.03621e-22)
(0.0162878 2.01939 0)
(-0.00160435 2.24327 -2.69794e-20)
(0.0088534 2.02613 4.05118e-20)
(0.00617883 0.813771 0)
(0.00452257 0.789658 0)
(0.0162435 0.546107 0)
(-0.00571993 0.748528 0)
(0.00811118 0.440054 0)
(0.938948 0.00989248 0)
(0.851112 -0.0145853 0)
(0.927969 0.000514769 0)
(0.842958 -0.0128691 0)
(0.809265 0.00127082 0)
(0.899292 0.0208511 0)
(0.875323 0.0244209 0)
(0.783056 0.00141648 0)
(0.00554783 3.06475 -8.3537e-21)
(0.0166817 3.05767 0)
(0.0146018 2.969 0)
(0.00865716 2.87621 0)
(0.91669 3.94416 0)
(1.22888 3.27806 9.2079e-19)
(0.0682115 3.06735 0)
(-0.0299097 2.90122 0)
(-0.0113447 1.41345 0)
(-0.0338742 1.70271 0)
(-0.0202035 1.54313 0)
(-0.031173 2.54346 -9.40648e-21)
(-0.0158897 2.23846 0)
(-0.0216343 2.38427 0)
(-0.000556911 1.95496 9.44785e-22)
(-0.00363849 2.24046 -1.04845e-20)
(-0.00548717 2.20509 -6.81778e-21)
(-0.0084197 1.93986 0)
(0.386999 0.12069 5.42278e-19)
(0.367271 0.0241369 -5.3215e-19)
(0.25799 1.58325 0)
(0.278302 0.759357 -3.16672e-19)
(0.176708 1.67072 -1.04904e-18)
(0.225409 1.22124 1.0513e-18)
(0.901897 0.00624066 0)
(0.967317 0.0112129 0)
(0.974506 0.0108405 0)
(0.923246 0.00633815 0)
(-0.00801496 0.744446 0)
(-0.00903599 0.741836 0)
(0.00874455 0.421228 0)
(0.0899437 0.0675822 5.89279e-19)
(0.0876257 0.04008 -6.91443e-19)
(0.0488234 0.0515518 0)
(1.10244 0.0872857 2.72397e-20)
(1.0844 0.0400758 0)
(1.01547 0.0405029 0)
(0.908839 -0.0049402 0)
(0.439512 0.10353 0)
(0.49858 0.0870367 -2.47528e-18)
(0.410433 0.0177892 9.26209e-19)
(0.00850524 2.98029 6.99263e-19)
(-0.0332145 2.86446 4.4947e-20)
(0.00361522 3.05032 -1.77064e-20)
(0.0202106 3.04327 6.29671e-19)
(-0.0149735 2.99658 2.9393e-20)
(-0.01296 2.94948 -1.18235e-22)
(-0.0172734 3.0119 -5.44466e-19)
(0.0149453 3.02357 3.94652e-19)
(0.00745766 3.03696 -6.2472e-19)
(0.934269 -0.00113368 0)
(0.939654 -0.00313915 0)
(0.846278 -0.0094583 0)
(0.956362 0.0120743 0)
(0.942373 0.0134963 0)
(0.881263 0.00572226 0)
(0.916325 0.0174004 0)
(0.925427 0.0153783 0)
(0.837048 0.00306176 0)
(0.712198 1.39607 3.49557e-20)
(0.745679 1.50468 0)
(0.178526 0.309096 7.06454e-20)
(0.228794 0.665176 5.68009e-19)
(0.260514 0.714619 -3.31926e-19)
(0.259799 0.513134 6.61118e-19)
(0.347095 0.810739 1.59994e-18)
(0.141136 0.229802 3.7775e-19)
(0.251053 0.140367 7.29812e-19)
(0.212335 0.131174 1.88995e-19)
(0.212231 0.0819561 3.577e-19)
(1.18634 0.467668 6.60796e-20)
(1.20067 0.258979 6.09431e-20)
(0.0104673 2.2321 2.5398e-19)
(0.0402783 1.94804 0)
(0.972011 0.0296855 0)
(0.944179 0.0140857 0)
(0.870268 -0.0177012 0)
(0.0114319 3.07439 0)
(0.0196888 2.94406 1.14932e-18)
(0.0163924 2.95637 0)
(0.00637079 2.85057 -1.14035e-18)
(0.00623173 3.0909 2.78604e-19)
(0.00710701 3.08232 0)
(0.778304 1.80558 -1.56297e-19)
(1.23655 2.48 3.94875e-19)
(0.760275 1.94485 -1.21681e-18)
(0.0195299 2.98051 -5.99947e-19)
(0.0345711 2.99839 0)
(-0.0348025 2.87619 0)
(-0.0037644 2.22332 -1.32489e-20)
(-0.00309689 2.24447 1.69082e-20)
(0.00213918 1.98911 -7.36768e-21)
(0.278241 1.39323 1.02701e-18)
(0.240325 0.555462 -7.04029e-19)
(0.0636903 1.99506 7.62629e-19)
(0.134848 1.88137 -9.10659e-19)
(0.179801 1.5119 9.52757e-20)
(0.00213663 3.11911 -1.72756e-18)
(0.0127877 3.11908 1.87851e-18)
(-0.009127 2.98107 7.70118e-19)
(-0.00445699 2.97739 -7.24361e-19)
(-0.0209575 2.88059 -7.84352e-19)
(0.00845805 3.1003 -2.07069e-18)
(0.00218661 3.10495 2.05085e-18)
(0.282597 0.692499 0)
(0.247845 0.680657 -1.18314e-18)
(0.0950885 0.222692 5.25191e-19)
(0.358405 0.938833 1.118e-18)
(0.196322 0.276636 -1.72382e-18)
(1.19064 0.176587 6.30594e-20)
(1.20098 0.314048 0)
(1.179 0.123807 -5.9183e-21)
(0.0017792 2.25133 -1.46437e-21)
(0.00517935 2.24237 0)
(0.0247206 1.98414 0)
(0.33946 1.30202 -3.68538e-19)
(0.375212 1.15101 -8.02317e-19)
(0.211072 0.379564 1.43143e-18)
(1.00588 -0.010822 0)
(1.00767 -0.00762973 5.09227e-19)
(-0.0332454 1.33845 0)
(-0.0449195 1.3414 0)
(1.00221 0.00351724 1.81276e-21)
(1.00366 0.00947417 1.03981e-18)
(-0.0198003 2.52846 1.19231e-20)
(-0.0246177 2.57101 0)
(0.0330219 3.17619 3.93217e-19)
(0.387606 3.4796 0)
(1.17935 0.669231 -5.65671e-20)
(1.01282 0.0131563 -2.13313e-21)
(1.02137 -0.0102585 0)
(1.0017 0.000138402 8.1119e-23)
(0.113296 1.37495 0)
(0.143091 2.56102 0)
(0.0358496 1.31678 0)
(0.000943062 2.61294 2.73692e-20)
(-0.0201953 2.57066 4.77507e-22)
(0.99966 0.0311142 2.51596e-21)
(1.06335 0.00494311 0)
(1.09801 0.0256374 0)
(-0.0320126 1.74713 0)
(-0.018236 2.57231 0)
(-0.00421226 1.32799 0)
(0.311565 1.488 -1.65468e-19)
(1.01131 -0.00960609 0)
(1.0094 -0.0149132 0)
(1.00237 0.000764594 6.50832e-19)
(1.00547 -0.0047928 -7.64906e-19)
(1.00118 -0.000964576 0)
(-0.0196904 1.4792 0)
(-0.0066424 1.3964 0)
(-0.0113945 1.43885 0)
(-0.00952952 1.31448 0)
(-0.0235079 1.30275 0)
(-0.0113696 1.28723 0)
(1.03511 -0.00599401 0)
(1.0198 0.016185 -9.14145e-22)
(0.82569 1.27994 2.61464e-19)
(1.00224 0.000330738 -6.48227e-19)
(1.00406 0.00526721 7.59013e-19)
(1.00118 0.00208041 0)
(1.0127 0.0103969 6.45312e-19)
(1.00797 0.00832253 -7.81856e-19)
(1.00855 0.0146869 0)
(-0.0236767 2.59965 0)
(-0.0261396 2.5788 -2.20953e-20)
(-0.0231759 2.59312 1.55792e-20)
(1.24 0.270484 5.83144e-19)
(1.16409 0.0880257 0)
(0.0391716 3.07863 -8.86029e-19)
(0.0644927 2.8573 -6.44406e-20)
(0.135636 3.19218 1.34709e-18)
(0.131273 3.21908 -1.87947e-19)
(0.131012 3.22882 0)
(0.0192577 3.13736 2.28521e-19)
(0.0730087 3.15979 8.73806e-19)
(0.0659445 3.1846 -4.30872e-19)
(0.0220474 3.12972 0)
(0.551468 0.279536 0)
(0.482298 0.29694 0)
(1.15206 0.705739 1.27653e-19)
(1.14477 0.827744 -1.10228e-19)
(1.20734 0.591991 0)
(1.23439 0.525241 0)
(1.016 0.0134143 -1.20278e-18)
(1.01491 0.014309 1.5101e-18)
(1.02543 -0.00978098 0)
(1.02349 -0.0118304 0)
(1.00643 0.00267031 0)
(1.01043 0.00377888 0)
(1.00458 0.00188275 0)
(1.00978 0.00627876 0)
(1.0078 0.00597236 0)
(1.0045 0.00474193 0)
(0.101966 1.37364 0)
(0.0990107 1.33491 0)
(0.132343 1.41024 0)
(0.150069 1.41407 0)
(0.145223 2.58613 0)
(0.18458 2.65678 -4.23951e-19)
(0.101623 2.64099 0)
(0.0853344 2.64409 1.99321e-19)
(0.039347 2.66733 -1.48717e-19)
(0.0241346 1.3354 0)
(0.0337394 1.24933 0)
(0.0262225 1.34593 0)
(0.0471824 1.27039 0)
(0.00523086 1.97954 4.79306e-21)
(-0.0191145 2.59832 -2.26633e-20)
(-0.00695485 2.65411 1.17854e-20)
(-0.0168088 2.67438 0)
(-0.0222027 2.60408 3.95038e-21)
(-0.0222301 2.59917 1.87173e-20)
(0.0139801 1.9774 3.85131e-23)
(-0.00662907 2.38423 3.04019e-20)
(-0.0120495 2.40774 -1.33675e-20)
(1.0118 0.0400431 1.21732e-18)
(1.00556 0.0212189 -1.51561e-18)
(1.004 0.0472853 -1.24028e-18)
(0.978765 0.0377646 1.56076e-18)
(1.06455 0.00873513 0)
(1.04964 -0.00810485 0)
(1.09514 0.0356614 0)
(1.07475 0.0133263 0)
(1.07257 0.00110882 0)
(1.14104 0.0847943 0)
(1.11265 0.0455015 0)
(1.11692 0.0331673 0)
(-0.0265279 2.42303 1.84987e-21)
(-0.0160627 2.01408 0)
(-0.0188948 2.21228 0)
(-0.0201871 2.59275 -1.34512e-20)
(-0.0172587 2.60286 2.84304e-22)
(0.00243623 1.59182 -4.43807e-20)
(-0.0102704 1.51947 4.526e-20)
(-0.0178803 1.40893 0)
(-0.0223974 1.41662 0)
(-0.0298778 1.41015 0)
(-0.00118861 1.33004 0)
(0.0165064 1.24269 0)
(0.388344 1.50539 2.68328e-19)
(0.431837 1.50593 1.43893e-19)
(0.596388 2.4366 -2.41117e-19)
(0.396695 2.53423 7.09369e-19)
(0.34808 2.04497 7.33167e-20)
(1.0211 -0.00808572 0)
(1.01552 -0.00972798 0)
(1.01493 -0.0154946 0)
(1.00741 -0.00104331 0)
(1.00493 -0.000896929 0)
(1.00779 -0.00466736 0)
(1.00928 -0.00357737 0)
(1.01424 -0.00433618 0)
(1.02052 0.0166789 1.17845e-18)
(1.01752 0.0158772 -1.51029e-18)
(1.02083 0.0189744 -1.18749e-18)
(1.01826 0.0175313 1.48874e-18)
(0.789089 1.33016 0)
(0.723867 1.38188 2.45622e-19)
(0.902163 1.23 9.82758e-20)
(0.947904 1.17591 -1.30793e-19)
(1.15 2.59166 2.9027e-19)
(0.763146 0.123763 6.03096e-19)
(1.16462 0.110929 0)
(1.21448 0.196983 -4.69479e-19)
(1.20205 0.157167 -2.00233e-20)
(1.00584 0.159352 0)
(0.125443 2.96083 5.12915e-19)
(0.101319 2.86644 -1.11833e-18)
(0.00873633 2.37742 7.45455e-19)
(0.108719 -0.179474 -3.00947e-19)
(0.332655 3.41006 -2.19208e-19)
(0.188398 3.30654 0)
(0.232568 3.34557 2.8549e-19)
(0.235927 3.03147 -1.72518e-18)
(0.328072 3.1879 0)
(0.00699658 3.12091 4.48185e-20)
(0.016313 3.12978 -5.28799e-19)
(0.0151059 3.12584 7.78299e-19)
(0.0345999 3.13967 0)
(0.0329091 3.15015 0)
(1.20393 2.58846 0)
(0.549611 0.795999 -5.27291e-19)
(1.07144 1.00066 -1.03451e-20)
(1.00746 1.08448 0)
(0.860871 0.979129 -1.1002e-19)
(1.09871 0.901012 2.78831e-20)
(0.250051 0.307714 -8.03086e-19)
(0.637773 0.325133 -1.52419e-20)
(0.523104 0.219562 4.06626e-19)
(0.500858 0.335553 2.90404e-20)
(0.382196 0.258793 -1.16267e-18)
(0.58836 0.325593 0)
(0.704164 0.431931 6.63934e-19)
(0.701707 0.432117 0)
(0.543901 0.339787 0)
(0.458186 0.235996 0)
(0.833181 0.633749 4.07916e-19)
(1.24146 0.293 -4.90305e-19)
(1.24231 0.433055 0)
(1.25029 0.373001 0)
(0.670044 0.196072 6.23274e-19)
(0.877151 0.564065 -3.72022e-19)
(0.776282 0.54275 6.64314e-19)
(0.963288 0.453356 -7.35645e-19)
(1.01924 0.0150768 8.10043e-19)
(1.01754 0.0144166 -8.1371e-19)
(1.01574 0.0155177 0)
(1.03659 -0.00553381 0)
(1.02998 -0.00832667 -7.61878e-19)
(1.02803 -0.0119247 7.54308e-19)
(1.02491 0.0107004 0)
(1.0234 0.0144322 0)
(1.01143 0.00420769 0)
(1.01417 0.00922972 0)
(1.01519 0.00423904 0)
(1.0143 0.00294764 0)
(0.073066 1.35699 0)
(0.0804303 1.30091 0)
(0.149392 1.39222 3.87506e-21)
(0.282584 1.48641 8.77668e-20)
(0.177344 1.45704 1.84252e-19)
(0.209417 1.46231 -3.00535e-19)
(0.178009 1.41815 0)
(0.136449 1.59991 -7.5341e-20)
(0.119811 1.58003 0)
(0.343763 1.9934 -1.0662e-19)
(0.340372 2.33038 6.17216e-19)
(0.196068 1.46831 6.56724e-20)
(0.270044 1.40356 2.15179e-20)
(0.203168 1.39687 -1.7373e-20)
(0.280006 1.34621 -1.09615e-19)
(0.243267 1.57828 0)
(0.269541 1.61464 1.17107e-19)
(0.0312275 2.25123 -3.01096e-20)
(0.0442755 2.65625 0)
(0.0668681 2.38701 1.39315e-19)
(0.0636979 2.4074 0)
(0.069939 2.65761 -2.2088e-19)
(0.0497067 2.68658 0)
(0.0310572 1.45437 3.50112e-20)
(0.0372184 1.5002 0)
(0.035515 1.41876 0)
(0.0311363 1.42553 -3.95102e-20)
(0.00173709 2.64026 -1.63729e-20)
(0.0304491 2.68563 1.67071e-19)
(0.0113365 2.71105 1.16795e-21)
(0.00719616 1.84016 -8.62749e-21)
(-6.42319e-05 1.69504 -4.48523e-21)
(0.0206443 1.31116 0)
(0.031341 1.22314 0)
(0.0461679 1.59792 -2.517e-20)
(0.0364217 1.47984 -3.14595e-20)
(0.0399569 1.54208 3.92084e-20)
(0.0414135 1.62105 0)
(-0.0297061 2.26431 1.06377e-19)
(-0.0306712 2.5394 -4.41877e-20)
(-0.0165988 2.43783 5.20965e-21)
(-0.000281368 1.85535 1.04555e-20)
(-0.0251502 2.48996 4.59034e-21)
(-0.0194318 2.43455 -6.80546e-21)
(1.01895 0.022366 -8.07691e-19)
(1.01555 0.0287373 8.1082e-19)
(1.01295 0.0184014 0)
(1.00905 0.0715958 1.13659e-18)
(0.991618 0.0621175 -1.26855e-18)
(0.95082 0.0560599 1.41836e-18)
(1.01235 0.11213 -1.51253e-19)
(1.04304 -0.0055006 0)
(1.05151 -0.00105667 7.26566e-19)
(1.03935 -0.00967172 -7.28065e-19)
(1.07228 0.0433711 -4.32209e-20)
(1.06523 0.0244767 3.72678e-19)
(1.06321 0.0577333 0)
(1.05411 0.051104 -1.34089e-19)
(1.03215 0.0425301 0)
(1.02658 0.0385744 0)
(1.0279 0.0138396 0)
(1.0239 0.016676 0)
(1.04024 0.0333386 2.7612e-19)
(1.0389 0.0272342 -6.10394e-19)
(1.05145 0.0349694 -2.92609e-19)
(1.04841 0.0350467 -3.223e-19)
(1.07178 0.0661449 6.29035e-19)
(1.09739 0.0539094 0)
(1.10695 0.0983782 0)
(-0.0253863 2.26881 5.99317e-20)
(-0.0256963 2.01973 1.70929e-21)
(-0.0217211 2.02691 0)
(-0.0267681 2.43717 -5.96423e-20)
(-0.0227351 2.39398 -3.47807e-21)
(-0.0332111 2.46355 6.47275e-21)
(-0.0199522 2.61177 -1.64084e-20)
(-0.0228464 2.55345 4.61292e-22)
(-0.0214471 2.50546 -4.92775e-21)
(-0.0153378 2.60573 1.30115e-20)
(-0.020214 2.60773 -1.432e-20)
(-0.00585716 1.52207 -9.33173e-22)
(0.00278267 1.6379 -4.25614e-20)
(0.373451 1.45424 -1.12368e-19)
(0.373422 1.38624 4.42545e-20)
(0.664748 1.43153 -2.37557e-19)
(0.530688 1.49856 -1.41154e-19)
(0.588587 1.4647 0)
(0.592138 2.41373 2.0783e-19)
(0.660636 2.4096 3.38281e-19)
(0.410219 2.50309 8.80829e-20)
(0.401609 2.52724 -6.12694e-19)
(0.509159 2.46789 6.17637e-19)
(0.552158 2.45043 0)
(0.486543 2.50835 -5.6049e-19)
(0.247694 2.58051 1.14512e-18)
(0.35391 2.55246 -7.67659e-20)
(0.283069 2.64213 -1.58889e-18)
(0.947032 2.36658 7.31413e-19)
(0.836986 2.37197 0)
(1.01109 0.000562947 2.64041e-20)
(1.01538 -0.00533356 -2.14161e-20)
(1.0177 -0.00342974 -3.91151e-19)
(1.01507 -0.000793412 3.93296e-19)
(1.01249 0.00131147 0)
(0.652306 1.29463 0)
(0.676341 1.18896 0)
(0.790591 1.10844 0)
(0.669727 1.15165 0)
(1.18039 2.60518 6.03735e-20)
(1.06769 2.35154 0)
(0.830674 2.15571 3.9519e-21)
(0.82168 2.42143 0)
(0.920106 2.51584 -4.29294e-19)
(0.955098 2.47208 2.8554e-19)
(0.795679 0.183789 0)
(0.735897 0.15725 1.63476e-19)
(0.905048 0.15341 9.53239e-19)
(0.821226 0.1559 -3.56417e-19)
(0.773962 0.0902015 -1.10248e-18)
(1.08326 0.244311 -8.96967e-19)
(0.999721 0.308615 -1.80072e-20)
(0.926533 0.312699 8.62901e-19)
(1.00676 0.237894 7.25488e-19)
(0.947167 0.201951 -1.2609e-18)
(0.908026 0.20643 1.5772e-19)
(0.946521 0.2736 -3.34639e-19)
(0.924298 0.232546 0)
(0.995511 0.19855 6.21749e-19)
(1.04729 0.197007 0)
(1.0451 0.225705 0)
(1.10833 0.12294 2.91582e-19)
(1.07243 0.183253 -1.5196e-20)
(1.0767 0.244229 -1.58623e-19)
(1.10209 0.209886 0)
(1.02088 0.0469425 6.22982e-19)
(1.0404 0.0601493 7.7721e-19)
(1.03365 0.0453547 -6.19097e-19)
(1.04246 0.0680655 -5.21449e-19)
(1.01689 0.076409 -8.00778e-19)
(0.98353 0.161715 0)
(0.98886 0.10672 0)
(0.965957 0.0771933 -5.04637e-19)
(0.903617 0.0980589 2.00842e-19)
(1.04043 0.109139 7.20251e-19)
(1.06971 0.126346 -8.40973e-19)
(1.0769 0.159071 7.50913e-19)
(1.03214 0.153749 0)
(1.07522 0.113653 0)
(1.05421 0.0943046 -3.44695e-19)
(1.04476 0.100074 -5.87719e-19)
(0.577679 1.048 1.44554e-19)
(0.600097 1.37 -4.65347e-20)
(1.15093 2.72257 -2.34705e-19)
(1.21592 3.06483 3.79796e-21)
(1.24181 2.70405 -1.33717e-19)
(1.26948 2.68673 -2.60025e-20)
(1.19566 2.32555 -1.13427e-20)
(1.20372 2.9683 -1.00297e-19)
(1.22432 2.93385 2.44902e-19)
(1.2055 3.21686 -1.39331e-19)
(1.36427 2.9464 1.9243e-19)
(1.35165 2.86394 0)
(0.573502 0.806768 -5.10221e-20)
(0.0940785 1.21381 5.59839e-19)
(0.564347 0.313122 5.30669e-19)
(0.397125 0.0582961 5.66418e-19)
(0.436081 0.306248 6.59881e-19)
(0.536784 0.426501 -1.07303e-18)
(0.540243 0.420794 8.77773e-19)
(0.434098 0.278451 -3.31156e-19)
(0.275396 0.204239 7.44541e-19)
(0.699544 0.271786 -3.60476e-19)
(0.654165 0.293656 0)
(0.584514 0.209145 6.22299e-21)
(0.740611 0.516491 3.59568e-19)
(0.723668 0.487381 -1.30689e-18)
(0.617692 0.449378 8.8372e-21)
(0.607747 0.439548 0)
(0.699202 0.721269 3.97307e-19)
(0.861582 0.785349 3.93386e-19)
(0.786669 0.869159 -4.60513e-19)
(0.9072 0.822345 -1.53578e-19)
(0.938822 0.867789 -3.70093e-20)
(0.945853 0.867555 3.78992e-20)
(0.872217 0.667692 -6.75954e-19)
(0.952051 0.719901 1.42583e-19)
(1.01277 0.734627 0)
(1.00329 0.710774 -1.92632e-19)
(1.0297 0.349604 2.12384e-19)
(1.15156 0.309868 2.88729e-19)
(1.07131 0.282031 3.66577e-19)
(1.02048 0.382614 -4.31997e-19)
(1.06991 0.445066 0)
(1.12618 0.424904 0)
(0.920875 0.385551 1.2874e-21)
(0.835076 0.319874 0)
(0.885933 0.319286 4.07248e-19)
(0.909795 0.32091 -8.36245e-21)
(0.958351 0.457171 2.04901e-18)
(0.92014 0.513386 5.25932e-19)
(0.923947 0.479778 -5.61345e-19)
(0.837519 0.468932 6.03342e-19)
(0.82034 0.463367 3.61872e-19)
(0.788096 0.445477 -3.55139e-19)
(1.02744 -0.000135893 6.51696e-19)
(1.02007 0.000159849 0)
(1.01858 0.00108292 4.24938e-19)
(1.02181 -0.00143886 -9.6263e-19)
(1.0224 0.00463081 4.67647e-19)
(1.02033 0.0116812 -9.793e-19)
(1.02122 0.0110809 0)
(1.02044 0.0113157 -2.04104e-19)
(1.01595 0.00793917 5.12031e-19)
(1.01658 0.010757 -2.55554e-19)
(1.01729 0.0101179 1.88142e-19)
(0.037069 1.33339 0)
(0.0438606 1.39005 0)
(0.0534312 1.33345 0)
(0.0609767 1.27782 0)
(0.0761964 1.40684 -4.04292e-20)
(0.0866436 1.37252 1.90239e-20)
(0.114966 1.55027 -1.70645e-20)
(0.108443 1.39587 -2.69538e-21)
(0.0417369 1.48486 1.63549e-20)
(0.0453562 1.47855 -1.25823e-20)
(0.069269 1.39456 -1.12042e-20)
(0.0618488 1.39526 4.17003e-20)
(0.0564457 1.37255 6.25729e-21)
(0.0470115 1.39646 3.43173e-21)
(0.107488 2.35434 -1.53967e-19)
(0.0962431 2.40345 0)
(0.169229 2.029 1.10511e-19)
(0.114571 1.70197 4.18565e-20)
(0.234652 2.02738 -9.14456e-20)
(0.198686 2.41644 0)
(0.261406 2.3664 -6.12282e-19)
(0.30149 2.36411 4.32435e-19)
(0.228304 1.98675 -2.54809e-19)
(0.154881 2.1448 1.72155e-19)
(0.141261 2.25042 0)
(0.0194263 1.87547 3.71718e-21)
(0.00190747 2.37884 -3.34242e-20)
(0.00717069 2.13745 0)
(0.012228 2.44327 -1.36448e-20)
(0.0299718 2.28597 9.87008e-21)
(0.0194325 1.43335 -7.87417e-21)
(0.0185303 1.41575 1.34601e-19)
(0.016506 1.42478 -4.46932e-20)
(0.0241823 1.43076 -3.71708e-20)
(0.0291702 1.45829 0)
(0.0121703 1.4092 0)
(0.00578651 1.31077 -6.15276e-20)
(0.00919021 1.40278 1.78067e-20)
(0.0146129 1.4002 0)
(0.0143743 1.30067 -4.49243e-20)
(0.0279123 1.21326 9.22913e-20)
(1.04087 0.0121654 0)
(1.04712 0.00844671 -6.81868e-20)
(1.03893 0.0227281 -4.91837e-19)
(1.04863 0.021409 0)
(1.05247 0.0211902 0)
(1.03656 0.0124351 -6.81896e-21)
(1.03123 0.0122805 7.90505e-19)
(1.03176 0.0173314 9.5867e-19)
(1.02555 0.0212803 0)
(1.02251 0.0218687 0)
(1.03541 0.0263227 4.90656e-19)
(1.0259 0.0281017 0)
(1.02403 0.0277221 0)
(-0.0169143 2.02229 0)
(-0.000324032 1.66542 -3.85974e-21)
(-0.00448096 1.76784 -3.18625e-20)
(0.000742004 1.41063 0)
(-0.00414809 1.57331 -2.37846e-20)
(-0.0100635 1.48802 1.49363e-20)
(-0.00693553 1.42958 0)
(0.387388 1.63186 0)
(0.376319 1.31158 -8.56415e-20)
(0.29973 1.33958 0)
(0.427854 1.31022 2.21377e-20)
(0.479268 1.47622 0)
(0.459532 1.42013 1.90411e-20)
(1.03522 2.66744 -1.54781e-20)
(0.967194 2.39502 -9.18999e-19)
(0.919895 2.18356 1.02796e-18)
(0.851086 2.36373 2.43508e-19)
(0.846478 2.47609 0)
(0.916124 2.47252 0)
(0.930386 2.35987 0)
(0.909396 2.34946 -9.50283e-19)
(0.684759 2.43941 -4.00867e-19)
(0.798479 2.42881 -9.90336e-20)
(0.808472 2.40312 7.52375e-20)
(0.694185 2.38254 0)
(0.799526 2.37764 0)
(0.757542 2.39129 -3.70227e-19)
(0.76608 2.4659 0)
(0.638289 1.09605 0)
(0.478777 0.891665 -5.28383e-19)
(0.575717 0.943378 -3.33335e-20)
(0.517289 1.0261 0)
(0.517622 0.965803 7.89739e-19)
(0.807069 0.891308 -1.30277e-19)
(0.815075 1.0258 0)
(0.790604 0.99273 1.86025e-19)
(0.675793 1.03657 0)
(0.676385 0.939947 0)
(1.16046 2.74533 -2.34333e-19)
(1.13782 2.80907 -1.01874e-19)
(0.925774 2.32201 1.08928e-19)
(0.893975 2.30151 -8.54495e-20)
(1.12629 2.71787 0)
(1.08058 2.68722 1.02777e-19)
(1.08507 2.46973 -3.15445e-19)
(0.979287 2.22262 -2.97347e-20)
(0.489272 1.32184 0)
(0.505932 1.05542 -1.27366e-19)
(0.580732 1.16961 0)
(0.848535 0.251481 0)
(0.756096 0.200507 0)
(0.661917 0.154897 0)
(0.839463 0.252372 -6.33178e-19)
(0.726306 0.245519 3.75336e-19)
(0.922078 0.0913589 -4.13808e-19)
(0.924236 0.133387 0)
(0.912559 0.142233 1.7883e-19)
(0.848589 0.11803 7.14978e-19)
(0.812295 0.0789744 -4.4797e-19)
(1.14989 3.34125 -7.09478e-19)
(1.19955 3.26116 0)
(1.14747 3.37067 -1.48043e-18)
(0.636865 3.53298 1.25397e-18)
(0.855947 3.10366 6.66497e-20)
(0.524783 0.779342 6.10016e-19)
(0.41953 0.776779 0)
(0.290476 0.331912 -1.47537e-19)
(0.484158 0.651875 8.55537e-19)
(0.574463 0.324016 -1.89338e-19)
(0.512969 0.463502 2.27052e-19)
(0.671577 0.519384 4.83845e-19)
(0.720266 0.560952 0)
(0.669979 0.572349 0)
(0.636822 0.529458 0)
(1.01232 0.621027 8.79627e-20)
(0.925535 0.562714 -5.12252e-19)
(0.951498 0.593838 3.85715e-19)
(0.980264 0.533544 -3.97334e-19)
(1.0898 0.500058 0)
(1.09885 0.591898 -9.65003e-20)
(0.856124 0.418856 -8.33433e-19)
(0.854284 0.40753 -1.03248e-18)
(0.78299 0.399802 6.31984e-19)
(0.792171 0.388227 -6.42197e-19)
(0.841782 0.344554 -5.21815e-19)
(0.786878 0.340344 6.37783e-19)
(1.02679 0.00620248 -4.98141e-19)
(1.02648 0.00643745 1.01419e-18)
(1.02957 0.000344009 6.31565e-19)
(1.03376 0.00123839 -7.60694e-19)
(1.03397 0.00939766 0)
(1.03023 0.0100836 -1.23767e-18)
(0.0642624 1.63837 1.96394e-20)
(0.0530941 1.59176 0)
(0.0913437 1.68724 1.336e-19)
(0.0985707 1.66844 -1.18579e-19)
(0.0927372 1.55155 3.05298e-20)
(0.0920226 1.55348 0)
(0.0142734 1.69762 0)
(-0.000878237 1.51698 1.05775e-20)
(0.000107329 1.46387 -9.50587e-21)
(-0.00630583 1.56956 5.55538e-21)
(0.00344215 1.88697 1.55072e-20)
(-0.00846466 1.94049 -3.71295e-21)
(0.495619 1.35182 -2.88148e-19)
(0.489958 1.35094 3.16735e-19)
(0.455463 1.30611 -3.91404e-20)
(0.43707 1.28102 8.25503e-21)
(0.644456 1.31374 0)
(0.558583 1.40478 9.9984e-20)
(0.575065 1.41117 -9.73404e-20)
(0.469756 1.29959 3.82541e-20)
(0.525484 1.24508 0)
(0.576568 1.20672 0)
(0.651899 2.39921 5.88863e-19)
(0.668059 2.44089 1.2673e-18)
(0.712231 2.45162 -8.7336e-19)
(0.608433 2.42545 -2.02624e-19)
(0.558859 2.51526 2.86027e-19)
(0.508361 2.49043 -7.62212e-19)
(0.976152 2.36664 -5.75616e-19)
(1.00921 2.37851 0)
(0.922802 2.16145 -6.59322e-19)
(1.05196 2.66609 0)
(1.05435 2.65262 0)
(0.589577 2.24915 -1.41226e-19)
(1.03142 3.14839 1.16207e-19)
(0.902993 3.01953 -1.81322e-20)
(0.253442 0.816956 0)
(0.274675 0.653945 -3.18566e-19)
(0.449772 0.615567 -3.228e-19)
(0.37075 1.99256 0)
(0.457324 2.77572 -4.64017e-20)
(0.40912 2.53815 0)
(0.725705 0.671428 -8.383e-19)
(0.809227 0.694758 1.11638e-18)
(0.828605 0.634626 -1.10265e-18)
(0.701195 0.637154 -1.06902e-19)
(0.754439 0.596961 -4.37066e-19)
(0.996431 2.74576 -8.83895e-20)
(1.03949 2.81047 -1.75141e-19)
(0.625215 2.10731 7.29178e-19)
(0.576299 1.67639 -5.18534e-19)
(0.689644 1.88082 -4.19426e-19)
(0.98345 2.43064 -1.13613e-19)
(0.991377 2.4244 3.05848e-19)
(0.641427 1.81171 2.9099e-20)
(0.434889 1.2996 1.48377e-19)
)
;

boundaryField
{
    wall-4
    {
        type            noSlip;
    }
    velocity-inlet-5
    {
        type            fixedValue;
        value           uniform (1 0 0);
    }
    velocity-inlet-6
    {
        type            fixedValue;
        value           uniform (0 3 0);
    }
    pressure-outlet-7
    {
        type            zeroGradient;
    }
    wall-8
    {
        type            noSlip;
    }
    frontAndBackPlanes
    {
        type            empty;
    }
}


// ************************************************************************* //
