/*--------------------------------*- C++ -*----------------------------------*\
| =========                 |                                                 |
| \\      /  F ield         | OpenFOAM: The Open Source CFD Toolbox           |
|  \\    /   O peration     | Version:  2206                                  |
|   \\  /    A nd           | Website:  www.openfoam.com                      |
|    \\/     M anipulation  |                                                 |
\*---------------------------------------------------------------------------*/
FoamFile
{
    version     2.0;
    format      ascii;
    arch        "LSB;label=32;scalar=64";
    class       volScalarField;
    location    "83";
    object      p;
}
// * * * * * * * * * * * * * * * * * * * * * * * * * * * * * * * * * * * * * //

dimensions      [0 2 -2 0 0 0 0];

internalField   nonuniform List<scalar> 
918
(
0.557656
1.17056
0.00106027
0.557125
-0.012687
1.13757
-0.514139
0.650382
0.537866
-0.107233
-0.0583335
0.539871
0.998111
0.763605
-1.12496
-0.0139359
0.651791
-0.38307
0.536997
-0.0704982
0.674176
0.544397
0.54742
0.537997
0.597235
0.736985
0.879105
0.0297313
0.0118059
0.00694262
-0.0122258
-0.0391475
-0.0338467
1.02123
1.0723
1.095
0.505573
0.334144
-0.379878
-0.453799
-0.439703
-0.53894
0.652108
0.653983
-0.217937
0.65142
0.649237
0.524866
0.537237
0.538151
0.539158
0.53815
0.539527
0.401919
-0.10834
-0.139568
-0.0882485
-0.0812098
0.0480685
-0.0572231
-0.0577412
-0.0573918
-0.059427
0.454625
0.534375
0.531015
0.544094
0.553369
1.11011
1.08204
1.10819
1.02177
1.03832
0.976106
0.948812
0.784546
0.806484
0.748951
0.7371
-1.55357
-2.49923
-0.538118
-0.288997
-0.0107138
-0.0122853
-0.00701111
0.649149
0.650249
0.651812
0.653579
1.0779
-0.380314
-0.482752
0.537142
0.535953
0.544259
0.544962
0.540983
0.540072
-0.0623676
-0.0599845
-0.0575829
-0.0652382
-0.062283
0.647756
0.653839
0.538523
0.535523
0.561092
0.581749
0.571458
0.277154
0.60807
0.62418
0.571996
0.732737
0.724668
0.734245
0.852551
0.816461
0.916323
0.939395
0.0185471
-0.000322667
-0.0181607
-0.0212651
-0.0205149
0.501399
0.49393
0.521815
0.509014
0.511525
0.251399
0.118754
0.418799
0.443389
-0.299596
-0.36792
-0.43202
-0.461928
-0.569568
0.614075
0.654533
0.651787
-0.227101
-0.155287
-0.29
-0.081952
-0.145307
0.51511
0.522139
0.517129
0.532706
0.527167
0.529133
0.541515
0.538583
0.540144
0.463977
0.587388
0.328181
0.292482
-0.243957
-0.155111
-0.243081
-0.0709387
-0.0684307
0.0624635
0.0883869
0.0345981
0.0226923
-0.0641839
-0.0598265
-0.0618745
-0.058876
-0.0592159
0.447331
0.436036
0.467343
0.474919
0.521065
0.522495
0.526902
0.524956
0.899595
0.921836
0.929522
0.903369
-3.48263
-6.25333
0.0334933
0.168764
-0.00689269
-0.00974134
0.00190553
-0.00631187
-0.000287259
-0.00224237
-0.0128623
-0.0140739
-0.00853448
-0.00751411
0.643964
0.644653
1.00079
1.00869
0.975619
0.928724
0.525425
0.52746
0.532931
0.52883
-0.0596168
-0.0592751
-0.0590785
0.649517
0.649218
0.649678
0.238398
0.148051
0.328488
0.357839
0.637467
0.62676
0.635779
0.631059
0.667581
0.94677
0.965005
0.963244
0.971697
1.0158
1.03226
0.997537
0.480777
0.490796
0.485724
0.524638
0.522556
0.523392
0.519871
0.520845
0.519038
-0.0310781
-0.409264
0.490581
0.506693
0.493003
0.494582
0.694222
0.772904
0.653056
0.653658
0.653592
-0.0118901
-0.0704615
0.247458
0.213026
0.386511
0.423138
0.401962
0.870759
0.831236
0.881377
0.854536
0.816111
0.841433
-0.36089
-1.85404
-0.976689
0.515486
0.331222
0.4176
0.00433073
-0.0124709
-0.00786896
1.00143
1.07286
0.643148
0.818556
0.820682
0.705085
0.734306
0.789886
0.716848
0.750494
0.784354
0.764692
0.569738
0.503766
0.520431
0.841706
0.897156
0.117322
0.0546603
0.0109577
0.107626
0.165524
0.139273
1.03261
0.950407
1.02015
0.535286
0.536012
-0.00719056
-0.0210287
0.540278
0.540335
-0.0139809
-0.00373106
0.401068
-0.832204
0.0946791
0.528897
0.518717
0.535884
-0.0931334
0.353309
-0.0576253
0.0438524
-0.0140273
0.530135
0.465779
0.42477
-0.00222173
-0.0234932
-0.0610919
-0.213654
0.532956
0.53126
0.535351
0.536286
0.536971
-0.0213572
-0.0173274
-0.0116324
-0.0559125
-0.046623
-0.0614649
0.49974
0.518936
-0.172201
0.535502
0.537641
0.537457
0.530747
0.536362
0.534623
-0.0139049
-0.0181027
-0.0207924
0.21795
0.3513
0.637879
0.721883
0.61139
0.38867
0.15552
0.542554
0.60498
0.511928
0.664028
0.649495
0.647241
0.160073
0.00925005
0.169596
0.111485
0.526759
0.525506
0.516967
0.51392
0.530752
0.528864
0.533428
0.530461
0.533413
0.534788
-0.049651
-0.0756519
-0.0854242
-0.152199
0.308059
0.568866
0.253064
0.282266
0.138765
-0.0527395
-0.0543609
-0.0549914
-0.0614998
-0.00297983
-0.0298141
0.0381862
0.0380353
0.00890764
-0.016599
-0.0136358
-0.024973
-0.0184287
0.523386
0.523304
0.528231
0.536876
0.475471
0.479255
0.443951
0.464821
0.44997
0.388363
0.424049
0.399117
-0.00800766
-0.000280106
-0.00454804
-0.0220554
-0.0188055
-0.0381623
-0.0349858
-0.0308287
-0.026614
-0.0332694
-0.0546799
-0.0598078
-0.171392
-0.287501
0.987436
0.906884
0.13876
0.522094
0.52856
0.525315
0.53026
0.53339
0.534182
0.531883
0.528426
0.519234
0.520899
0.517439
0.518376
-0.102784
-0.245306
-0.0735856
-0.149446
0.146687
0.628659
0.363199
0.298021
0.293566
0.523349
0.908021
0.689247
0.653704
0.64101
-0.346588
0.0391894
-0.284215
0.328463
0.158782
0.637567
0.686685
0.708349
0.656469
0.609895
-0.0976243
0.556137
-0.0778111
-0.0247841
0.177777
0.0517854
0.641955
0.638435
0.645078
0.639341
0.648615
0.640826
0.620816
0.622702
0.638815
0.645886
0.47922
0.248576
0.198728
0.160267
0.643832
0.512887
0.561331
0.488254
0.522016
0.524604
0.523269
0.504577
0.512172
0.507688
0.514257
0.517833
0.526463
0.526952
0.522189
0.524321
-0.0560817
-0.0617418
-0.0262518
-0.135952
-0.128787
-0.191028
-0.0602515
0.0747716
0.0361684
0.236703
0.340077
0.0517176
-0.0573597
-0.0302207
0.0130751
0.17971
0.208422
0.0725607
0.159231
0.151869
0.132352
0.235375
0.238185
-0.0336736
-0.0346229
-0.0388608
-0.0425041
0.0150858
0.0869461
0.0961195
-0.0137899
-0.0180496
-0.0530442
-0.0563321
-0.0246545
-0.0296562
-0.025328
0.00284175
-0.0561458
-0.0241971
-0.010703
-0.0132328
-0.0119013
-0.0172946
0.518186
0.519881
0.520151
0.529149
0.54129
0.555934
0.521616
0.497748
0.488505
0.491509
0.464427
0.474741
0.470582
0.484202
0.505515
0.513991
0.512315
0.515116
0.497512
0.499231
0.485711
0.489379
0.464469
0.445013
0.432941
-0.0460238
-0.0076296
-0.0161428
-0.0411108
-0.0114379
-0.0232711
-0.016421
0.00325777
-0.0140657
-0.0145177
-0.0248482
-0.0317567
-0.0311582
-0.0731539
0.0140656
-0.185636
-0.220336
-0.293985
0.88992
1.01419
0.808391
0.581251
0.602475
0.845953
0.929741
0.54112
0.734035
0.756886
0.588661
0.855757
0.526949
0.526541
0.52414
0.523617
0.52484
-0.00666075
0.100648
0.0965769
0.161753
0.278482
0.389496
0.32246
0.196793
0.326181
0.328387
0.621124
0.633052
0.589232
0.613433
0.614335
0.424998
0.500693
0.552332
0.513527
0.565974
0.587831
0.54146
0.574973
0.523724
0.478921
0.475036
0.42469
0.44423
0.419685
0.40287
0.517522
0.494111
0.50508
0.495207
0.51732
0.543676
0.540703
0.563215
0.578271
0.498044
0.453132
0.462415
0.492627
0.454269
0.469759
0.485545
0.235587
0.138342
0.221143
-0.0629661
0.00526023
-0.0063042
-0.055559
-0.00275822
0.281088
-0.408236
-0.385438
-1.01043
0.50683
0.947734
0.564101
0.544398
0.649169
0.638638
0.64412
0.660387
0.653103
0.632418
0.640178
0.645403
0.589049
0.60995
0.625391
0.621947
0.523713
0.378797
0.379155
0.32596
0.196107
0.236558
0.43179
0.356327
0.281574
0.281637
0.456153
0.342139
0.412958
0.445378
0.376264
0.330924
0.534614
0.60085
0.594066
0.567717
0.476548
0.487963
0.512967
0.546558
0.569708
0.604144
0.513676
0.519639
0.520869
0.518339
0.515598
0.5187
0.518959
0.521552
0.522161
0.525187
0.52426
-0.0535097
-0.0401626
-0.0504621
-0.0618202
-0.0185005
-0.0210559
0.0222677
0.0100168
-0.0172831
-0.012698
-0.0336166
-0.0376056
-0.0349173
-0.0277202
0.102022
0.114506
0.0990618
0.0594598
0.250712
0.380096
0.454646
0.329437
0.224141
0.248161
0.266415
-0.0147547
0.00990722
-0.00270392
0.037254
0.0298478
-0.044135
-0.0484922
-0.0448135
-0.0358028
-0.0275536
-0.0468829
-0.0556381
-0.0454184
-0.0495508
-0.0540743
-0.0593569
0.500032
0.493527
0.495108
0.489082
0.487793
0.501964
0.506267
0.508261
0.513746
0.516008
0.506118
0.511509
0.515445
-0.0178512
-0.0407029
-0.0437168
-0.038891
-0.0384858
-0.0360399
-0.0380141
0.124514
0.0560431
0.0594586
0.0122009
-0.121067
-0.0628623
0.493445
0.492072
0.480611
0.722243
0.571458
0.492717
0.589822
0.695475
0.277668
0.47361
0.309371
0.888533
0.785882
0.93196
0.542588
0.248269
0.414989
0.454747
0.27006
0.347438
0.323237
0.212823
0.24319
0.2834
0.381212
0.267923
0.245718
0.00208567
0.192914
0.303413
0.285494
0.408972
0.469033
0.269722
0.189117
0.143953
0.605608
0.624891
0.638283
0.610648
0.63325
0.582021
0.573998
0.589392
0.597582
0.591214
-0.73928
-0.445346
-1.39327
-0.719417
-0.261927
0.537385
0.51262
0.770999
0.6427
0.669372
0.653678
0.616023
0.587425
0.6135
0.63343
0.337324
0.448156
0.422984
0.429627
0.332486
0.2621
0.561621
0.559424
0.592393
0.616447
0.588024
0.618617
0.511478
0.511198
0.510661
0.506905
0.505171
0.507508
0.0574804
0.0248524
0.0663232
0.0488188
0.026521
0.0145486
-0.0198985
-0.0301492
-0.0365928
-0.034798
-0.0201277
-0.0165639
0.174449
0.110897
0.0311659
0.0597182
-0.00132602
-0.0698527
-0.0895681
0.0170713
0.113396
0.103578
0.406149
0.65475
0.474928
0.642328
0.485455
0.541125
0.468763
0.459666
0.484143
0.381231
0.461697
0.258601
-0.25097
-0.160541
0.79732
0.807062
0.581669
0.410148
0.176219
0.350074
0.538449
0.467272
0.502225
0.570856
0.557199
0.0359288
0.0909077
0.385779
0.612432
0.244305
0.235068
0.228489
0.415337
0.332065
)
;

boundaryField
{
    wall-4
    {
        type            zeroGradient;
    }
    velocity-inlet-5
    {
        type            zeroGradient;
    }
    velocity-inlet-6
    {
        type            zeroGradient;
    }
    pressure-outlet-7
    {
        type            fixedValue;
        value           uniform 0;
    }
    wall-8
    {
        type            zeroGradient;
    }
    frontAndBackPlanes
    {
        type            empty;
    }
}


// ************************************************************************* //
