/*--------------------------------*- C++ -*----------------------------------*\
| =========                 |                                                 |
| \\      /  F ield         | OpenFOAM: The Open Source CFD Toolbox           |
|  \\    /   O peration     | Version:  2206                                  |
|   \\  /    A nd           | Website:  www.openfoam.com                      |
|    \\/     M anipulation  |                                                 |
\*---------------------------------------------------------------------------*/
FoamFile
{
    version     2.0;
    format      ascii;
    arch        "LSB;label=32;scalar=64";
    class       surfaceScalarField;
    location    "83";
    object      phi;
}
// * * * * * * * * * * * * * * * * * * * * * * * * * * * * * * * * * * * * * //

dimensions      [0 3 -1 0 0 0 0];

oriented        oriented;

internalField   nonuniform List<scalar> 
1300
(
3.75095
5.62643
-3.30137
3.75095
-7.75363
5.62643
-4.40508
4.40508
-0.32942
0.32942
1.87639
1.87457
-2.69093
2.69093
-2.0254
2.0254
-2.52196
2.52196
-5.2465
5.2465
-5.06944
5.06944
4.65047
-4.65047
-6.31251
6.31251
-0.937696
0.937696
-3.68908
3.68908
3.16958
-3.16958
-1.96928
1.96928
0.0947126
-0.0947126
-0.553468
4.30442
3.19749
3.19749
-2.00803
2.00803
-4.8703
4.8703
6.21811
-6.21811
5.28139
-5.28139
-1.98002
-2.48459
1.80444
-11.4695
-5.94919
-5.94919
-8.44037
8.44037
-2.81394
2.81249
2.94644
-2.94644
-1.76769
1.76769
-4.36947
-0.0356114
-4.36947
4.37326
0.0318197
4.37326
-0.443892
0.114472
-0.443892
4.01381
-4.01381
0.220045
0.109375
0.220045
3.0654
-3.0654
-1.87712
3.75351
1.87383
-1.8719
6.17632
-1.87905
3.75362
-6.01419
6.01419
-2.93603
0.245104
-2.93603
2.47954
0.211385
2.47954
-6.85153
6.85153
-2.08275
0.0573524
-2.08275
1.97493
0.0504666
1.97493
2.88212
-2.88212
-2.62782
0.105857
-2.62782
2.39314
0.128821
2.39314
0.353502
5.27293
-5.97993
8.79243
-5.27293
0.0264303
5.20835
0.0381441
5.20835
-5.1061
0.0366602
-5.1061
5.01247
0.0569704
5.01247
4.73359
-0.0831266
4.73359
-4.77024
0.119771
-4.77024
-3.36763
-4.05256
-6.46333
0.150817
-6.46333
-1.02712
0.0894205
-1.02712
0.825137
0.112559
0.825137
-3.68821
3.68821
-4.111
0.421925
-4.111
3.12397
0.0456131
3.12397
1.86849
1.88247
5.61944
-5.61944
2.44986
-1.92509
-0.0441842
-1.92509
-2.05492
-3.22647
2.05492
-0.0856428
-0.13193
0.226642
-0.13193
3.15945
0.0380321
3.15945
2.23584
0.157296
-2.23584
0.227812
3.28065
-3.28065
1.33548
0.672547
1.33548
-5.5629
5.5629
4.95698
0.0554895
-4.95698
0.0866814
6.15667
0.0614333
6.15667
-6.19954
-0.0185617
-6.19954
2.52601
-5.0106
-2.64637
6.13058
0.181933
-6.13058
0.181386
2.91842
0.0280178
2.91842
-2.91819
2.91819
-2.98486
0.0384177
-2.98486
-2.16604
0.398345
-2.16604
1.46988
0.297818
1.46988
-4.27291
-0.0965579
-4.27291
-4.26148
0.150476
4.26148
0.111786
1.13147
-1.13147
-0.577122
0.133229
-0.577122
-4.13853
-0.134389
4.13853
-0.124714
-3.90151
-0.112306
-3.90151
-3.02463
0.039769
3.02463
0.0407731
3.11291
0.0465415
-3.11291
0.0475108
-1.87081
3.75328
-1.88014
3.75397
-5.63477
-0.379415
-5.63477
6.32518
-0.310996
6.32518
3.32977
0.359305
-3.32977
0.393741
2.30899
0.170551
2.30899
-6.81306
-0.0384741
-6.81306
6.83705
0.0144863
6.83705
2.17738
0.131608
-2.17738
0.0946347
1.93852
0.0364063
1.93852
2.90271
-0.0205934
2.90271
-2.87599
-0.00613086
-2.87599
2.79046
-2.79046
2.71516
0.0753044
-2.71516
0.0873443
-11.1331
11.1146
-0.0353178
-11.0978
5.17304
5.17304
4.15924
0.574359
4.15924
-4.9891
0.218866
-4.9891
2.69255
-5.33892
3.09968
-6.4673
4.65773
-16.1272
4.28618
-8.33874
6.70369
-6.70369
6.59235
0.111342
-6.59235
0.12902
-1.14594
0.11882
-1.14594
-3.08731
-0.600905
-3.08731
4.32906
-0.640851
4.32906
-3.02797
3.02797
-3.07739
0.0494221
3.07739
0.0465737
1.916
0.0225182
-1.916
-0.00908879
0.154487
0.0655578
-0.154487
0.0225574
3.49593
-0.215285
3.49593
-3.08115
-0.199496
-3.08115
-1.24524
0.0993008
1.24524
0.090246
-5.81395
0.251043
-5.81395
-11.1907
0.0929169
-11.1526
-6.10663
-6.10663
2.33374
11.1262
-2.89383
0.0178363
2.89383
0.0245975
2.97458
0.0533881
-2.97458
0.0563967
-2.85745
0.0669868
2.85745
0.0607359
-2.54059
0.374547
-2.54059
-1.07055
1.07055
-1.23435
0.163799
1.23435
0.235531
1.40499
-0.273521
1.40499
0.706107
0.11903
-0.706107
0.128986
-3.79909
-0.102415
-3.79909
6.56084
-0.23566
6.56084
-2.96528
-0.115866
2.96528
-0.0625701
-0.0332643
11.1478
-5.13977
0.0336745
5.13977
-11.2093
11.2429
-3.21052
0.669929
3.21052
0.94872
5.28281
0.280094
-5.28281
0.293704
6.78767
0.0493779
-6.78767
0.0839758
-2.59506
-0.492248
-2.59506
-5.05358
-0.581195
5.05358
-0.724515
-11.4748
-0.204507
11.6793
-11.4178
6.01845
0.13822
-6.01845
11.3812
-1.03028
-0.101194
1.03028
0.0402672
1.73309
-0.328093
1.73309
3.69467
-0.198743
-3.69467
-0.104416
-6.71553
-0.0975268
6.71553
-0.154687
-2.1502
-0.444855
2.1502
-0.417118
-4.26713
4.30516
1.90919
-2.37789
-2.63271
-5.60435
1.85184
1.90144
4.3017
-10.1234
-6.00375
-9.94206
7.26063
-6.96693
-9.2347
9.15157
7.91143
-8.02374
-5.78468
5.83126
6.48299
-6.44221
1.87884
1.87467
8.03142
-7.78631
-15.5789
15.1995
7.57449
-7.51714
15.7326
-15.7711
-17.8128
17.8622
-5.70793
5.81379
-6.74093
6.7348
-6.97721
6.91464
-2.8325
-3.6348
13.0839
-12.933
8.62281
-8.66699
-8.63075
9.05267
3.38261
0.922558
3.42915
-1.88213
3.76097
-1.87149
3.78068
2.74671
-5.57921
2.59221
-5.22492
4.38833
4.23448
-4.30268
-1.30167
-5.92498
5.953
-5.81371
5.87445
9.15777
-9.19338
-1.88518
3.75984
-1.86879
3.77023
-3.42499
-2.35969
3.37938
0.922321
8.05103
5.03282
-8.23296
-1.7091
-8.04969
7.85095
-8.23542
8.03592
-0.433128
5.81882
-5.38569
4.43717
-1.56354
7.38236
5.69709
5.91595
5.8655
-5.58541
1.10143
-6.48711
-6.40043
-2.20742
2.34065
2.11271
-2.00333
6.16041
1.75103
6.03569
-5.77107
-2.25267
-5.87349
3.82043
2.01083
3.86985
4.07856
2.40443
4.11833
3.0304
-3.03601
0.00560903
-3.0567
6.0871
0.723836
-5.41639
-4.49407
4.98091
3.0505
5.1923
-5.56185
-2.22447
-5.1681
-9.5245
-6.05441
-10.1057
10.0669
5.13262
9.75587
-11.936
11.7813
4.81288
2.76161
4.86335
-4.95663
-2.56051
-4.86199
11.6329
-2.64439
-8.98854
-10.2992
-7.5136
10.2847
5.4479
10.9401
6.92206
11.0241
4.41752
7.2154
-9.86542
2.35182
-3.86816
-1.83977
-3.78082
3.67605
2.13773
3.80487
-4.21767
-2.52326
-4.19983
-4.29601
-2.6812
4.3166
2.4182
-4.4184
-3.81702
4.53427
2.38037
4.03519
-10.0389
4.30355
-7.93836
-9.17602
-3.75702
-9.047
3.55041
2.6059
-6.1563
-2.0288
8.55539
-4.32091
7.25372
-5.20546
-3.46153
-5.21455
-6.8945
-1.73624
-6.74403
-8.86607
8.37382
-9.16167
8.52082
12.4877
-5.63277
-6.85493
-3.96848
-2.47374
3.92097
-0.491818
-3.71045
3.71606
0.0505174
3.8312
4.75376
4.26194
-3.88475
-1.92896
-3.82835
3.82443
2.05002
3.89141
6.85075
2.30702
6.88257
-6.62852
-2.56485
-6.72508
9.02486
-8.62652
2.83089
-2.73158
5.40304
2.63289
-5.18775
-2.86194
6.20816
-3.22006
-2.9881
-12.2006
10.5223
1.67826
-4.81821
-0.38104
-0.475752
-5.48587
-3.74883
5.3661
0.549853
11.0722
7.32333
-5.51108
5.76212
6.16823
6.22372
-0.176712
5.79669
-5.12676
5.25518
-2.62039
-2.6348
5.48825
-5.62264
-1.23683
-5.5415
4.30467
0.41305
1.41825
-1.19161
-1.75208
-0.455342
-1.62309
1.20524
0.907467
1.2708
0.963595
1.37706
-2.9511
0.511806
2.4393
-1.98751
-1.49153
-3.85346
-1.14103
4.99449
5.74708
2.10387
-5.64267
-0.230823
2.50692
-2.39436
-0.80624
-3.04722
2.24236
-3.0486
-3.6649
-2.09838
5.76328
-3.36973
-0.458622
3.31634
0.553505
-3.82729
-2.09769
3.78888
0.32945
-3.12862
6.1912
-3.06258
-5.05758
2.52745
3.55965
4.53828
-4.78955
2.44781
2.34173
-1.2299
4.24738
0.944916
4.41793
-6.95086
4.72639
5.81199
3.24069
-6.17129
1.00319
-5.94767
8.55148
-7.378
-1.17348
4.16955
4.38192
7.04809
5.43961
-5.66435
12.7124
-1.20765
-6.17035
7.15532
-3.91463
4.85503
-8.76966
-10.2946
4.12429
-9.11572
10.8902
-1.77444
-3.61763
-8.31834
12.7333
-1.20188
-11.5315
8.554
-4.28955
-4.40683
8.69638
-6.93394
6.96734
-1.99067
-4.97667
-10.0853
-5.68577
10.1829
1.59843
-9.93995
12.2918
-2.72455
4.12801
0.735338
4.16441
3.30509
-5.49081
2.18572
3.62886
-5.61952
2.07824
-7.56905
-6.71851
12.0477
-5.32917
-10.4755
-9.49927
-0.976262
2.53387
9.7579
-9.45593
7.41081
2.04512
3.30029
0.59112
-3.3756
-0.405218
0.234096
4.51373
-4.74782
4.03897
4.19627
3.2636
1.25013
3.84569
2.10731
-3.87028
-0.329549
-4.16437
1.48317
-1.74617
-3.69496
5.17813
-4.06755
0.372586
-2.74391
-3.49733
6.24124
-4.58368
3.03498
3.15622
5.08501
-4.91338
1.41605
-2.39276
-2.52062
2.6515
-4.39767
1.99491
3.18322
4.37528
0.55826
5.87341
6.17427
-8.47931
0.540952
11.2071
-9.498
2.46261
8.5615
-9.87342
0.374152
-8.67284
0.996254
-5.31716
-5.16005
5.20336
-6.9396
-3.5663
6.22271
0.659859
-6.3345
-0.409531
-6.02679
-2.83928
-6.47164
-3.0385
-6.12317
-8.70285
-1.64975
-7.0531
6.72407
-6.67192
-3.43377
7.39643
1.12439
-7.40086
7.29966
-7.47938
7.15129
0.0954672
3.62059
4.3574
1.88367
-2.3907
4.27436
-5.12511
7.43213
-8.73391
3.6088
4.21593
-6.78078
-4.51798
5.01394
4.01093
5.31175
8.86709
-10.3261
1.459
-10.6295
11.9635
-1.33399
-16.3818
5.75227
-7.51473
2.43248
0.398406
2.5513
0.541091
2.49882
-3.03991
-2.19049
-2.10025
-2.4428
-3.46477
5.90757
1.08358
-3.53275
2.44917
-3.56755
4.65113
-0.221745
-3.311
5.26661
-2.76779
5.66502
-3.78929
1.87572
3.44037
5.7538
-2.31343
4.39565
-1.76276
1.93106
-4.2445
-1.53371
-2.95541
5.09314
-3.28583
3.65842
-0.345318
4.00374
-4.04643
0.826367
-0.782829
3.41344
3.64125
4.31669
-3.06656
2.9159
-4.67866
-1.3286
-4.1204
-0.937174
-0.252207
-3.69243
3.94464
5.96589
-6.2181
-5.22679
9.5135
-4.28671
7.68207
-5.37429
-2.30778
-4.24447
-4.38205
3.86992
1.92677
9.60884
0.208168
-5.58246
-4.91859
-3.96987
3.09461
2.16058
-1.70656
3.38482
2.18231
-0.764059
0.428214
0.842586
1.77628
-1.34806
0.326468
1.44981
-0.865143
1.68895
0.817969
-1.80798
0.184883
-1.34524
3.5876
1.09406
-2.00152
0.653463
0.974952
-3.59534
5.07868
-2.69605
-2.38263
6.05363
1.14173
-3.83778
4.39978
-3.98673
2.40288
-3.54391
-1.4349
-5.42163
-3.6706
-2.51516
4.96433
-3.39241
5.49627
1.29943
-5.26545
6.56488
-3.73164
1.63326
-3.04157
3.85954
-0.919488
-2.12208
2.90255
2.86073
-3.08878
0.0415681
-0.186234
2.40579
-2.59202
-0.642817
-2.63033
-4.57368
4.90313
-2.10511
4.55293
2.16925
-1.91732
6.47025
1.80863
-3.72595
-3.24895
-3.70757
-1.38421
3.15407
-0.56945
-4.29254
-5.54612
4.16093
0.256998
-7.06843
7.88549
-0.817065
-4.01792
-0.708466
4.87802
-6.08866
0.46914
-4.01042
3.87507
4.81998
5.07698
-11.3112
-0.220239
-6.17861
1.12085
-7.29946
5.50277
-3.53044
7.65473
-10.3064
6.87261
-9.182
6.48126
-0.818203
6.239
-4.05328
2.74953
-8.4353
-6.83687
5.55841
-2.7968
6.29374
-3.17504
9.46878
-5.89959
5.34132
4.12746
-1.03077
-4.18378
-5.34447
4.3137
-0.00315248
4.16126
4.98034
-2.87303
4.65079
2.27014
-4.6629
-2.12753
-6.4963
1.8334
-3.34008
-1.92133
3.75473
3.16367
3.75479
1.23411
-3.34958
7.20343
-8.17969
-1.87426
-3.28579
5.33477
-1.02107
3.44392
-6.72971
-1.87324
4.77984
-0.777773
-4.00206
0.852931
-4.41923
1.67566
-6.09489
5.26395
-5.67348
2.22154
-9.73627
-5.17932
-5.13905
-2.25768
-5.22171
-7.55671
5.29903
-1.80443
5.49523
-8.48622
7.70845
-3.47731
8.77634
-5.4221
-1.04954
5.83922
1.31207
10.0884
0.228018
-4.746
-1.92613
3.83222
-1.90609
1.16848
-3.46441
0.367812
2.4972
3.55643
-6.80188
0.0210954
-4.7249
-3.91279
7.92371
5.60071
11.5666
1.24052
9.1021
-1.17839
10.3426
4.13337
4.3689
-2.98019
4.43919
0.964441
4.57324
-0.926802
2.80252
1.6245
1.71392
0.680441
2.30363
1.33762
3.13
0.0900818
-2.01017
4.61623
-8.5861
-0.966224
-8.01175
1.13983
5.70339
-4.56356
2.91643
-0.755851
1.01034
-0.141167
-1.16737
1.30854
-2.77596
-1.93143
-0.481625
-1.69837
2.35184
1.88923
-1.87021
-0.905751
0.352056
-4.02265
3.19185
-3.15029
-0.289554
6.27532
-2.81484
0.222815
-1.18157
-2.40751
-2.86285
2.67797
6.17633
0.293915
3.11375
5.19704
3.09936
0.226332
3.88013
-5.65457
-3.68892
-5.87481
-0.372036
4.50598
1.767
7.99089
5.89447
4.8734
-1.85632
-10.036
6.50473
-2.06554
5.17074
-1.16868
-4.92621
5.05331
2.37882
-5.71317
0.0396916
-4.88652
-6.95206
-0.510732
8.21918
-9.57768
8.52814
5.68886
1.36425
-4.39811
-0.740936
4.23432
0.134581
10.4772
-1.1295
-6.69728
7.82678
-4.57389
3.60766
0.728974
2.65585
2.03751
1.28166
-5.41562
-9.97918
-2.07332
-1.52202
-4.45595
0.53854
-2.42777
6.21364
-2.60597
3.90585
5.22081
6.23114
-2.12621
-4.09189
6.41292
-2.50706
3.72408
)
;

boundaryField
{
    wall-4
    {
        type            calculated;
        value           uniform 0;
    }
    velocity-inlet-5
    {
        type            calculated;
        value           uniform -3.75095;
    }
    velocity-inlet-6
    {
        type            calculated;
        value           uniform -5.62643;
    }
    pressure-outlet-7
    {
        type            calculated;
        value           nonuniform List<scalar> 8(3.30137 7.75363 4.4646 9.66504 7.42019 5.17238 5.79222 8.94391);
    }
    wall-8
    {
        type            calculated;
        value           uniform 0;
    }
    frontAndBackPlanes
    {
        type            empty;
        value           nonuniform List<scalar> 0();
    }
}


// ************************************************************************* //
