/*--------------------------------*- C++ -*----------------------------------*\
| =========                 |                                                 |
| \\      /  F ield         | OpenFOAM: The Open Source CFD Toolbox           |
|  \\    /   O peration     | Version:  2206                                  |
|   \\  /    A nd           | Website:  www.openfoam.com                      |
|    \\/     M anipulation  |                                                 |
\*---------------------------------------------------------------------------*/
FoamFile
{
    version     2.0;
    format      ascii;
    arch        "LSB;label=32;scalar=64";
    class       volVectorField;
    location    "83";
    object      U;
}
// * * * * * * * * * * * * * * * * * * * * * * * * * * * * * * * * * * * * * //

dimensions      [0 1 -1 0 0 0 0];

internalField   nonuniform List<vector> 
918
(
(0.98516 -0.000508368 0)
(0.00501883 2.96624 0)
(0.00751355 0.883889 0)
(0.979705 0.00214504 0)
(-0.0121239 2.06182 3.79205e-20)
(-0.00705116 2.9488 -2.43425e-18)
(0.822363 1.16827 4.51748e-19)
(0.0994151 0.0692358 -1.4528e-20)
(0.999909 -0.000275259 0)
(0.0667169 0.736846 0)
(0.0187231 0.477893 0)
(0.731667 0.00652632 0)
(0.0110961 2.93042 0)
(0.00257407 2.79527 0)
(-0.0179941 3.14635 7.82593e-19)
(-0.021177 1.91745 1.23255e-20)
(0.286994 0.0598457 1.01862e-18)
(0.189233 1.14481 3.17925e-19)
(0.962711 0.00501649 0)
(0.00627016 0.432391 0)
(-0.00699858 0.0207147 -6.69422e-19)
(1.00197 -0.00497415 0)
(1.00023 -0.00978308 0)
(0.975741 -0.00643856 0)
(0.598163 0.0304795 0)
(0.0133697 2.64319 0)
(-0.0148657 2.91 8.93298e-19)
(0.0119778 0.927693 0)
(-0.0206199 1.18404 0)
(0.0142796 0.911724 0)
(-0.0150853 2.58586 0)
(-0.00100827 2.11558 -3.02856e-20)
(-0.0111121 1.89748 0)
(-0.0206046 2.98761 -8.73936e-23)
(-0.0166816 3.00528 1.89172e-18)
(0.00209629 3.00017 0)
(0.871475 -0.00965873 0)
(0.401152 0.9302 1.81044e-19)
(0.809262 1.18168 -5.17774e-19)
(0.960159 1.02873 5.63373e-19)
(0.676747 1.27341 -1.05307e-19)
(0.676404 1.2472 6.02851e-19)
(0.124806 0.120736 1.417e-20)
(0.136219 0.0577315 0)
(1.16688 0.566452 0)
(0.090251 0.0893432 6.38274e-20)
(0.0628857 0.046798 -6.62452e-20)
(0.91993 -0.00745759 0)
(1.00027 0.000162889 0)
(0.999909 0.000339709 0)
(1.00363 -0.00775695 0)
(1.00096 -0.000917859 0)
(1.00017 3.83657e-05 0)
(0.0727915 1.82644 -7.68216e-19)
(0.0325396 0.946773 0)
(0.0985999 0.815945 0)
(0.0145882 0.894024 0)
(0.0416038 0.656575 0)
(0.0069512 2.01595 0)
(0.00254161 0.774013 0)
(0.0192036 0.499142 0)
(-0.00271054 0.760071 0)
(0.0106457 0.458905 0)
(0.842198 -0.0156604 0)
(0.842474 0.0269061 0)
(0.757766 0.00353613 0)
(0.80115 0.029288 0)
(0.700812 0.0182743 0)
(0.0146787 3.00041 9.01832e-19)
(0.0114782 3.00808 0)
(0.00610251 3.00273 0)
(0.0135279 2.99737 1.02225e-23)
(0.00796111 2.95849 -1.34034e-18)
(0.0145002 2.98206 0)
(0.0108896 2.90356 0)
(0.0242781 2.931 2.03964e-24)
(0.00473072 2.825 0)
(0.0300002 2.91663 0)
(-0.00492854 2.74558 0)
(0.30353 3.53735 0)
(-0.131543 3.61757 0)
(0.136807 3.23619 -7.28268e-19)
(-0.0139804 2.97575 0)
(-0.0272112 1.98586 0)
(-0.00698582 2.1691 -1.21566e-20)
(-0.0151781 1.92578 7.0963e-21)
(0.337674 0.137901 -3.53693e-19)
(0.317766 0.0357453 -3.43717e-19)
(0.292083 0.14121 -1.05919e-18)
(0.251443 0.0659145 -6.88072e-19)
(0.229807 0.985842 0)
(0.272892 1.29497 -3.69873e-19)
(0.367429 1.23026 6.1721e-19)
(0.987425 0.00857617 0)
(0.941846 0.00580697 0)
(1.0003 0.000581747 0)
(1.00286 0.00931042 0)
(1.00301 0.00847369 -2.74758e-18)
(0.991906 0.00969516 2.07487e-18)
(-0.0146833 0.758002 0)
(0.00917427 0.436865 0)
(-0.0537371 1.00783 0)
(-0.0320449 0.80888 0)
(0.00204956 0.439983 0)
(-0.089867 0.083245 2.07867e-19)
(0.0374826 0.0539198 0)
(0.993556 -0.00836824 0)
(0.954475 -0.0065344 0)
(0.743779 0.0297797 0)
(0.678358 0.0279842 0)
(0.660776 0.0256673 0)
(0.972887 -0.00708353 0)
(0.586763 0.0738296 0)
(0.457008 -0.00277772 1.54266e-18)
(-0.0375891 2.86091 6.54362e-19)
(0.041104 2.90981 0)
(0.0533778 2.88645 0)
(-0.00493337 2.70135 0)
(-0.0132327 2.98526 8.4446e-19)
(-0.0177495 2.89502 0)
(-0.0153588 2.98809 -2.62117e-18)
(-0.0133008 2.92518 8.97644e-19)
(-0.035553 1.35228 0)
(-0.00699689 1.38317 0)
(-0.00718204 2.13384 5.81795e-22)
(-0.00615748 2.09562 0)
(-0.0233186 1.9049 0)
(0.93871 -0.00735314 0)
(0.857675 -0.00997159 0)
(0.862757 0.00537958 0)
(0.949676 -0.00778609 0)
(0.884144 -0.00819976 0)
(0.512231 1.12283 -2.28532e-19)
(0.561431 1.17377 0)
(0.365986 0.875265 3.37017e-20)
(0.308962 0.734085 0)
(0.922739 1.06451 -1.55674e-19)
(1.04231 0.874472 3.18226e-19)
(0.360393 1.35724 0)
(0.528802 1.32874 0)
(0.550168 1.26726 0)
(0.12157 0.184996 -3.03214e-19)
(0.159816 0.113801 0)
(0.171652 0.0979409 1.89259e-19)
(1.01298 0.92865 0)
(1.0875 0.782162 0)
(1.11286 0.723919 -2.54551e-19)
(1.14623 0.625914 0)
(1.19628 0.408915 5.78591e-20)
(0.957813 -0.00868151 0)
(0.962545 -0.0100194 0)
(0.901809 -0.00798819 0)
(0.984212 -0.00913902 0)
(0.974728 -0.00932085 0)
(0.937155 -0.00637503 0)
(1.00019 0.00234128 0)
(1.0009 0.00141767 0)
(0.999909 0.00085617 0)
(0.0355551 2.07231 4.25888e-19)
(0.118518 1.76949 0)
(0.0181876 2.18582 6.537e-19)
(0.0459505 1.88069 -5.44105e-19)
(0.10693 1.14978 -2.60347e-19)
(0.0496766 1.02822 0)
(0.143076 0.981964 0)
(0.00896317 0.846137 0)
(0.0205976 0.592842 0)
(-0.000909213 2.24184 -7.63078e-22)
(0.0160638 2.01986 0)
(-0.0018158 2.2445 -2.49548e-20)
(0.00832641 2.02554 3.66322e-20)
(0.0059962 0.81609 0)
(0.00378568 0.793383 0)
(0.0151183 0.5404 0)
(-0.00966599 0.75405 0)
(0.00588734 0.442392 0)
(0.938896 0.00987431 0)
(0.851025 -0.0146017 0)
(0.927942 0.000501919 0)
(0.842922 -0.0128704 0)
(0.809754 0.000309541 0)
(0.899155 0.0210753 0)
(0.87532 0.0242806 0)
(0.783442 0.000524656 0)
(0.0056857 3.06491 -8.38603e-21)
(0.0167597 3.05769 0)
(0.0147072 2.969 0)
(0.00870272 2.87617 0)
(0.918318 3.94784 0)
(1.23105 3.28183 9.23141e-19)
(0.0686762 3.06806 0)
(-0.0294487 2.90134 0)
(-0.0109398 1.40635 0)
(-0.0330936 1.7002 0)
(-0.0195314 1.53803 0)
(-0.0308598 2.54518 -9.18961e-21)
(-0.0153157 2.23865 0)
(-0.0208919 2.38526 0)
(-0.00110954 1.95303 7.02971e-22)
(-0.00363268 2.24039 -1.16764e-20)
(-0.00547192 2.20406 -7.4007e-21)
(-0.00901229 1.93767 0)
(0.388264 0.121711 5.40611e-19)
(0.366862 0.0220152 -5.30488e-19)
(0.25835 1.5852 0)
(0.278236 0.759046 -3.1569e-19)
(0.176824 1.6725 -1.04632e-18)
(0.225667 1.22146 1.04858e-18)
(0.901931 0.00613628 0)
(0.967334 0.0112267 0)
(0.974515 0.0108338 0)
(0.923256 0.00632334 0)
(-0.011365 0.750847 0)
(-0.0135547 0.750105 0)
(0.00728863 0.432146 0)
(0.0788288 0.0639155 5.86541e-19)
(0.074639 0.0387054 -6.89963e-19)
(0.0370252 0.0374702 0)
(1.10206 0.0871781 2.69798e-20)
(1.08406 0.0400447 0)
(1.01523 0.0404615 0)
(0.908675 -0.0050046 0)
(0.44146 0.103457 0)
(0.501008 0.0872769 -2.46574e-18)
(0.41052 0.0157054 9.22407e-19)
(0.00857499 2.9808 7.04171e-19)
(-0.0325154 2.86519 4.68317e-20)
(0.00358856 3.05027 -1.77685e-20)
(0.0202583 3.04333 6.32232e-19)
(-0.0150143 2.9966 2.94929e-20)
(-0.0129289 2.94949 -1.18712e-22)
(-0.0172432 3.01191 -5.46498e-19)
(0.0148677 3.02375 3.95473e-19)
(0.00738456 3.0368 -6.25724e-19)
(0.93425 -0.00114826 0)
(0.939641 -0.00314913 0)
(0.846252 -0.00945846 0)
(0.956383 0.0121448 0)
(0.94237 0.0136098 0)
(0.881387 0.00550649 0)
(0.916196 0.0176626 0)
(0.925384 0.0154871 0)
(0.837372 0.00236662 0)
(0.714483 1.39951 3.77481e-20)
(0.747798 1.50804 0)
(0.179804 0.312332 7.06142e-20)
(0.230045 0.669179 5.67629e-19)
(0.262108 0.718701 -3.31746e-19)
(0.261726 0.51681 6.60507e-19)
(0.34725 0.813279 1.5954e-18)
(0.141339 0.231093 3.76475e-19)
(0.248398 0.143528 7.27824e-19)
(0.20864 0.13486 1.88492e-19)
(0.214786 0.0769285 3.56983e-19)
(1.18518 0.467042 6.80062e-20)
(1.19982 0.258691 6.2989e-20)
(0.0103799 2.23458 2.5097e-19)
(0.0403061 1.94905 0)
(0.97185 0.0296698 0)
(0.94409 0.0140918 0)
(0.870143 -0.0177251 0)
(0.0112059 3.07408 0)
(0.0195457 2.94408 1.15433e-18)
(0.0163959 2.95622 0)
(0.00647414 2.85063 -1.14492e-18)
(0.00639242 3.09108 2.79802e-19)
(0.00720108 3.08277 0)
(0.780493 1.80905 -1.57547e-19)
(1.23891 2.48354 3.99225e-19)
(0.762436 1.94823 -1.22241e-18)
(0.0194242 2.97977 -6.05755e-19)
(0.0349739 2.99822 0)
(-0.0347184 2.87569 0)
(-0.00399656 2.2241 -1.31681e-20)
(-0.00318714 2.24498 2.00013e-20)
(0.00161724 1.98786 -7.24488e-21)
(0.278303 1.39491 1.02434e-18)
(0.240106 0.554842 -7.0229e-19)
(0.0637161 1.99725 7.6e-19)
(0.135014 1.88354 -9.07851e-19)
(0.180052 1.51261 9.52825e-20)
(0.00277954 3.11811 -1.74144e-18)
(0.0167293 3.11794 1.86643e-18)
(-0.00925674 2.98085 7.74709e-19)
(-0.00350445 2.97716 -7.30983e-19)
(-0.0211709 2.8811 -7.8902e-19)
(0.00858526 3.09908 -2.07829e-18)
(0.00196154 3.10676 2.02813e-18)
(0.283404 0.696174 0)
(0.24929 0.684601 -1.18234e-18)
(0.0958338 0.224756 5.2488e-19)
(0.358511 0.940745 1.11452e-18)
(0.196387 0.277399 -1.71843e-18)
(1.19005 0.176371 6.20273e-20)
(1.20012 0.313661 0)
(1.17844 0.123684 -4.86113e-21)
(0.00161112 2.25339 -1.42052e-21)
(0.00504493 2.24464 0)
(0.0246552 1.98499 0)
(0.339855 1.30397 -3.67669e-19)
(0.375391 1.15251 -8.00212e-19)
(0.211137 0.37986 1.42738e-18)
(1.00588 -0.0108224 0)
(1.00767 -0.0076303 5.06831e-19)
(-0.0301142 1.33329 0)
(-0.0429047 1.33398 0)
(1.00221 0.00351702 1.81298e-21)
(1.00367 0.0094749 1.03494e-18)
(-0.019307 2.53008 1.16476e-20)
(-0.0243816 2.57275 0)
(0.0338679 3.17624 3.98176e-19)
(0.388427 3.48104 0)
(1.17908 0.668174 -5.54135e-20)
(1.01283 0.0131461 -2.12791e-21)
(1.02136 -0.0102639 0)
(1.0017 0.000135931 8.04897e-23)
(0.113014 1.3722 0)
(0.14326 2.56518 0)
(0.0354439 1.31571 0)
(0.00036221 2.61701 2.43981e-20)
(-0.0211362 2.57419 -1.01562e-21)
(0.999622 0.0311266 2.55218e-21)
(1.06335 0.00493045 0)
(1.09801 0.0255728 0)
(-0.0314135 1.74375 0)
(-0.0188617 2.57434 0)
(-0.00848661 1.32257 0)
(0.311543 1.48484 -1.68528e-19)
(1.01131 -0.00960697 0)
(1.0094 -0.0149141 0)
(1.00237 0.000761308 6.4776e-19)
(1.00547 -0.0047937 -7.61309e-19)
(1.00118 -0.00096382 0)
(-0.0188978 1.47371 0)
(-0.00803547 1.38668 0)
(-0.0108314 1.43147 0)
(-0.0126903 1.3092 0)
(-0.0254144 1.29607 0)
(-0.0161885 1.28065 0)
(1.03511 -0.00599979 0)
(1.0197 0.0159978 -9.28025e-22)
(0.824906 1.2774 2.63174e-19)
(1.00223 0.00032832 -6.45194e-19)
(1.00406 0.00526673 7.55457e-19)
(1.00118 0.00207962 0)
(1.01269 0.0103963 6.4224e-19)
(1.00797 0.0083205 -7.7819e-19)
(1.00856 0.014684 0)
(-0.0239384 2.60161 0)
(-0.026053 2.5806 -2.18911e-20)
(-0.0232834 2.595 1.55428e-20)
(1.23983 0.270143 5.77524e-19)
(1.16398 0.0879081 0)
(0.039008 3.07827 -8.94142e-19)
(0.0650506 2.85706 -6.50047e-20)
(0.137463 3.19167 1.36891e-18)
(0.132851 3.21913 -1.90583e-19)
(0.132219 3.22928 0)
(0.0192243 3.13707 2.3056e-19)
(0.0736911 3.15995 8.81593e-19)
(0.0667983 3.18463 -4.34739e-19)
(0.0213744 3.13024 0)
(0.552172 0.281848 0)
(0.488068 0.301209 0)
(1.15147 0.704535 1.24139e-19)
(1.1444 0.826094 -1.05686e-19)
(1.20692 0.591052 0)
(1.23405 0.524538 0)
(1.01599 0.0134013 -1.19706e-18)
(1.01495 0.0142557 1.5029e-18)
(1.02542 -0.00978157 0)
(1.02349 -0.0118296 0)
(1.00642 0.00266387 0)
(1.01042 0.00376908 0)
(1.00458 0.00187747 0)
(1.00978 0.00627313 0)
(1.0078 0.00597171 0)
(1.00451 0.00473675 0)
(0.101574 1.37073 0)
(0.0986134 1.33277 0)
(0.131967 1.40723 0)
(0.150223 1.41166 0)
(0.145331 2.59036 0)
(0.184813 2.66102 -4.21649e-19)
(0.101666 2.64532 0)
(0.0853864 2.64839 1.96633e-19)
(0.0391303 2.67155 -1.44456e-19)
(0.022454 1.33179 0)
(0.0325294 1.24891 0)
(0.0249179 1.34181 0)
(0.0468646 1.26966 0)
(0.00456153 1.98168 7.53361e-21)
(-0.020019 2.60194 -2.4758e-20)
(-0.00767708 2.65833 7.9156e-21)
(-0.0176661 2.67793 0)
(-0.0231162 2.60754 7.53389e-21)
(-0.0232362 2.60251 2.06843e-20)
(0.0132912 1.97969 -2.11715e-21)
(-0.00747457 2.38863 3.32136e-20)
(-0.0128316 2.41173 -8.97737e-21)
(1.01207 0.0398909 1.21151e-18)
(1.00528 0.0212028 -1.50836e-18)
(1.00418 0.0471868 -1.23447e-18)
(0.978627 0.0380565 1.55368e-18)
(1.06454 0.00873518 0)
(1.04962 -0.00810658 0)
(1.09512 0.035616 0)
(1.07473 0.0133093 0)
(1.07253 0.00102366 0)
(1.14105 0.0847369 0)
(1.11261 0.0454479 0)
(1.11682 0.0331028 0)
(-0.026424 2.42416 1.64202e-21)
(-0.016261 2.01261 0)
(-0.0183395 2.2121 0)
(-0.0207341 2.59499 -1.36838e-20)
(-0.0178343 2.60528 3.01132e-22)
(0.000842598 1.58625 -4.19569e-20)
(-0.00981478 1.51384 4.27747e-20)
(-0.019256 1.40314 0)
(-0.0228336 1.4099 0)
(-0.0300855 1.40425 0)
(-0.00494729 1.32406 0)
(0.0107387 1.24298 0)
(0.387778 1.50231 2.74459e-19)
(0.431125 1.50289 1.45528e-19)
(0.59698 2.44106 -2.40428e-19)
(0.397311 2.53848 7.06799e-19)
(0.348522 2.04809 7.16689e-20)
(1.0211 -0.00808528 0)
(1.01552 -0.00972906 0)
(1.01493 -0.0154969 0)
(1.0074 -0.00104594 0)
(1.00493 -0.000899866 0)
(1.00779 -0.00466768 0)
(1.00928 -0.00357841 0)
(1.01424 -0.00433893 0)
(1.02041 0.0166043 1.17292e-18)
(1.0175 0.0156953 -1.50161e-18)
(1.02071 0.0189009 -1.18247e-18)
(1.01806 0.0173725 1.48161e-18)
(0.788125 1.32772 0)
(0.7233 1.37902 2.48649e-19)
(0.901275 1.22795 1.00439e-19)
(0.947117 1.17377 -1.33672e-19)
(1.15268 2.5951 2.83651e-19)
(0.763962 0.123611 6.00634e-19)
(1.16458 0.110836 0)
(1.21436 0.196807 -4.64963e-19)
(1.20196 0.156955 -1.98321e-20)
(1.00581 0.159095 0)
(0.125708 2.95881 5.21186e-19)
(0.101613 2.86437 -1.13361e-18)
(0.00672086 2.37811 7.5448e-19)
(0.108438 -0.182268 -3.06499e-19)
(0.333455 3.4116 -2.18238e-19)
(0.18939 3.30714 0)
(0.233403 3.34681 2.84226e-19)
(0.236409 3.03075 -1.75012e-18)
(0.329306 3.18833 0)
(0.00527501 3.12119 4.50804e-20)
(0.0154252 3.12977 -5.32449e-19)
(0.0135492 3.12586 7.83644e-19)
(0.0339871 3.14003 0)
(0.0324914 3.14998 0)
(1.20704 2.592 0)
(0.55073 0.796603 -5.26273e-19)
(1.07085 0.998702 -1.19776e-20)
(1.00652 1.08276 0)
(0.860281 0.977318 -1.08612e-19)
(1.09788 0.899687 2.78351e-20)
(0.277901 0.30527 -8.12218e-19)
(0.639162 0.326456 -1.6091e-20)
(0.520852 0.220328 4.05002e-19)
(0.509151 0.337745 2.88962e-20)
(0.394354 0.264795 -1.15755e-18)
(0.591884 0.326662 0)
(0.709536 0.433107 6.60261e-19)
(0.706234 0.433392 0)
(0.551092 0.34231 0)
(0.456985 0.239356 0)
(0.833266 0.63127 4.05498e-19)
(1.24129 0.292674 -4.85605e-19)
(1.24203 0.432476 0)
(1.25004 0.372484 0)
(0.670547 0.195134 6.21538e-19)
(0.877574 0.562403 -3.69779e-19)
(0.777444 0.540721 6.60478e-19)
(0.963573 0.452885 -7.31408e-19)
(1.01915 0.0150524 8.05356e-19)
(1.01748 0.0144056 -8.09178e-19)
(1.01581 0.0153631 0)
(1.03658 -0.00553909 0)
(1.02998 -0.00832949 -7.58119e-19)
(1.02803 -0.0119272 7.50584e-19)
(1.02491 0.0107354 0)
(1.02338 0.0145507 0)
(1.01142 0.00420011 0)
(1.01417 0.00921308 0)
(1.01517 0.0042355 0)
(1.01428 0.0029405 0)
(0.0724831 1.35411 0)
(0.0797751 1.29902 0)
(0.148637 1.38874 8.21546e-21)
(0.282209 1.4832 8.96242e-20)
(0.177291 1.45394 1.88493e-19)
(0.209795 1.45917 -3.0735e-19)
(0.177582 1.41412 0)
(0.136227 1.59982 -7.04e-20)
(0.120121 1.57946 0)
(0.344302 1.99686 -1.04218e-19)
(0.340884 2.33422 6.12625e-19)
(0.196298 1.46651 6.13717e-20)
(0.269612 1.4002 2.34399e-20)
(0.202809 1.39323 -1.89251e-20)
(0.279517 1.34306 -1.04156e-19)
(0.242873 1.57845 0)
(0.269552 1.61504 1.13e-19)
(0.031271 2.25471 -2.8292e-20)
(0.0441368 2.66058 0)
(0.0668638 2.39104 1.34887e-19)
(0.0635663 2.4117 0)
(0.0699237 2.66197 -2.17919e-19)
(0.0495951 2.69086 0)
(0.0300596 1.45029 3.86679e-20)
(0.036918 1.49722 0)
(0.0348141 1.41483 0)
(0.030188 1.42158 -4.36363e-20)
(0.00117696 2.64449 -1.66599e-20)
(0.0301997 2.68996 1.61717e-19)
(0.0109046 2.7153 1.13287e-21)
(0.00582487 1.84051 -1.00675e-20)
(-0.000762705 1.69469 -5.68573e-21)
(0.0188839 1.30945 0)
(0.0287177 1.22518 0)
(0.0462853 1.59677 -3.09861e-20)
(0.0358152 1.47674 -3.71069e-20)
(0.0394798 1.53974 4.63784e-20)
(0.0412639 1.6201 0)
(-0.030451 2.26586 1.07328e-19)
(-0.0314757 2.54184 -4.46769e-20)
(-0.0174306 2.44033 5.37632e-21)
(-0.00201041 1.8559 1.21993e-20)
(-0.0261839 2.49303 5.00217e-21)
(-0.0204485 2.43765 -9.39792e-21)
(1.01894 0.0222888 -8.0398e-19)
(1.01566 0.0286023 8.06967e-19)
(1.01262 0.0183188 0)
(1.00916 0.0714597 1.13108e-18)
(0.991699 0.0619775 -1.26271e-18)
(0.95102 0.0565293 1.41182e-18)
(1.01309 0.11206 -1.50526e-19)
(1.04303 -0.00550488 0)
(1.05149 -0.00106109 7.22792e-19)
(1.03934 -0.00966824 -7.24285e-19)
(1.07235 0.0433201 -4.29861e-20)
(1.06524 0.0244374 3.70753e-19)
(1.06306 0.0576083 0)
(1.05422 0.0510852 -1.3338e-19)
(1.0321 0.0423527 0)
(1.02667 0.0385979 0)
(1.02796 0.0139281 0)
(1.02397 0.0166573 0)
(1.04021 0.0333424 2.74696e-19)
(1.03881 0.0270698 -6.07338e-19)
(1.05148 0.0349388 -2.91096e-19)
(1.0483 0.0350759 -3.20634e-19)
(1.0718 0.0660083 6.2572e-19)
(1.09738 0.0538252 0)
(1.10694 0.0982887 0)
(-0.0263316 2.27041 5.92438e-20)
(-0.0260418 2.01879 1.48949e-21)
(-0.0221613 2.02618 0)
(-0.0273086 2.43854 -5.89659e-20)
(-0.0226819 2.39481 -3.05901e-21)
(-0.0335123 2.46509 6.32535e-21)
(-0.0207405 2.61485 -1.82387e-20)
(-0.0236836 2.55623 5.29364e-22)
(-0.0223734 2.50845 -5.34462e-21)
(-0.0159702 2.60839 1.37613e-20)
(-0.0209493 2.61057 -1.51946e-20)
(-0.00792809 1.51424 -1.02797e-21)
(0.00129676 1.63329 -4.15599e-20)
(0.372871 1.45123 -1.15842e-19)
(0.372906 1.38406 3.8111e-20)
(0.663977 1.42878 -2.40507e-19)
(0.53017 1.49563 -1.42886e-19)
(0.5882 1.46166 0)
(0.592682 2.41824 2.06902e-19)
(0.661302 2.41432 3.37537e-19)
(0.410696 2.50744 8.81893e-20)
(0.401931 2.53138 -6.07108e-19)
(0.509547 2.47189 6.13745e-19)
(0.552775 2.45488 0)
(0.487229 2.51285 -5.58617e-19)
(0.247977 2.58476 1.13949e-18)
(0.354319 2.55679 -7.69639e-20)
(0.283465 2.6465 -1.5823e-18)
(0.948059 2.37096 7.29701e-19)
(0.837873 2.37674 0)
(1.01109 0.000555412 2.62782e-20)
(1.01538 -0.0053375 -2.13145e-20)
(1.01769 -0.00343584 -3.89287e-19)
(1.01506 -0.000794937 3.91407e-19)
(1.01248 0.00130784 0)
(0.651426 1.29276 0)
(0.675681 1.18654 0)
(0.790137 1.10604 0)
(0.668877 1.14987 0)
(1.18287 2.60852 6.01531e-20)
(1.07082 2.35597 0)
(0.83217 2.15689 3.89152e-21)
(0.822645 2.4244 0)
(0.920937 2.51871 -4.24328e-19)
(0.956105 2.47484 2.82222e-19)
(0.795649 0.184045 0)
(0.73605 0.156958 1.62975e-19)
(0.905514 0.153253 9.49312e-19)
(0.821394 0.15633 -3.5506e-19)
(0.775161 0.0904856 -1.0979e-18)
(1.08317 0.244053 -8.91611e-19)
(0.999965 0.308491 -1.80769e-20)
(0.926741 0.312569 8.5907e-19)
(1.00664 0.237824 7.22084e-19)
(0.947312 0.201701 -1.25554e-18)
(0.908391 0.20624 1.57078e-19)
(0.946412 0.273846 -3.33114e-19)
(0.924359 0.232603 0)
(0.995739 0.198306 6.19059e-19)
(1.04712 0.196764 0)
(1.04505 0.225501 0)
(1.10821 0.122809 2.89915e-19)
(1.07213 0.183096 -1.52122e-20)
(1.07652 0.243956 -1.5775e-19)
(1.10194 0.209616 0)
(1.02102 0.0468062 6.19601e-19)
(1.03997 0.0600266 7.73148e-19)
(1.03365 0.0453233 -6.15736e-19)
(1.04237 0.0680592 -5.18766e-19)
(1.01738 0.0762986 -7.96946e-19)
(0.983996 0.161383 0)
(0.988941 0.106645 0)
(0.965963 0.0771552 -5.02283e-19)
(0.903926 0.0982644 1.9999e-19)
(1.04034 0.10898 7.16656e-19)
(1.06944 0.126172 -8.36341e-19)
(1.07663 0.158856 7.46844e-19)
(1.03191 0.153634 0)
(1.07495 0.113464 0)
(1.05387 0.0941076 -3.42798e-19)
(1.04427 0.0998662 -5.84653e-19)
(0.578575 1.04938 1.42126e-19)
(0.601555 1.37126 -4.39145e-20)
(1.15282 2.72418 -2.31354e-19)
(1.21808 3.06682 3.06443e-21)
(1.24424 2.70718 -1.28164e-19)
(1.27211 2.69007 -2.89382e-20)
(1.19898 2.33008 -1.13546e-20)
(1.20588 2.97057 -9.7375e-20)
(1.22635 2.93618 2.40296e-19)
(1.20793 3.21923 -1.40799e-19)
(1.36698 2.94951 1.9449e-19)
(1.35492 2.86737 0)
(0.571735 0.806376 -5.07205e-20)
(0.0983582 1.21342 5.65699e-19)
(0.566738 0.320515 5.34179e-19)
(0.402936 0.0648403 5.73281e-19)
(0.449099 0.309042 6.57006e-19)
(0.545243 0.425379 -1.07078e-18)
(0.548874 0.419352 8.76801e-19)
(0.449478 0.284568 -3.31763e-19)
(0.30085 0.212709 7.42886e-19)
(0.699602 0.272388 -3.594e-19)
(0.65448 0.294267 0)
(0.582997 0.208319 6.12163e-21)
(0.744768 0.51549 3.57683e-19)
(0.728301 0.487193 -1.30009e-18)
(0.62455 0.448969 9.04081e-21)
(0.615548 0.439106 0)
(0.699312 0.718867 3.9499e-19)
(0.861847 0.783595 3.90861e-19)
(0.78625 0.866315 -4.57496e-19)
(0.907315 0.820986 -1.52302e-19)
(0.93836 0.866158 -3.65555e-20)
(0.945347 0.865852 3.74353e-20)
(0.872543 0.666355 -6.71864e-19)
(0.952412 0.71871 1.41406e-19)
(1.01261 0.733338 0)
(1.00324 0.709578 -1.90941e-19)
(1.02985 0.349317 2.11084e-19)
(1.15142 0.309517 2.86237e-19)
(1.07128 0.281783 3.64374e-19)
(1.02066 0.382308 -4.29566e-19)
(1.06974 0.444601 0)
(1.12629 0.424406 0)
(0.920882 0.385849 1.20628e-21)
(0.835842 0.32046 0)
(0.886126 0.319331 4.06122e-19)
(0.909897 0.320835 -8.43789e-21)
(0.958779 0.456675 2.03705e-18)
(0.920565 0.51232 5.22663e-19)
(0.924564 0.479022 -5.58156e-19)
(0.838117 0.467589 5.99594e-19)
(0.82262 0.462993 3.59717e-19)
(0.79204 0.446305 -3.53087e-19)
(1.02744 -0.000140497 6.48505e-19)
(1.02005 0.000151141 0)
(1.01857 0.00107662 4.22876e-19)
(1.02179 -0.00144927 -9.5793e-19)
(1.0224 0.00462249 4.65361e-19)
(1.02032 0.0116875 -9.74511e-19)
(1.02122 0.0110783 0)
(1.02041 0.0113343 -2.03122e-19)
(1.01593 0.00794045 5.0957e-19)
(1.01656 0.0107488 -2.54316e-19)
(1.01728 0.0101046 1.87217e-19)
(0.0360121 1.33018 0)
(0.0433117 1.38607 0)
(0.0526163 1.33042 0)
(0.0603576 1.27639 0)
(0.0757906 1.40354 -4.98345e-20)
(0.0861812 1.36922 2.20754e-20)
(0.114111 1.54883 -1.45053e-20)
(0.107844 1.3918 -4.84698e-21)
(0.0411816 1.48186 2.20786e-20)
(0.0448756 1.47552 -1.6998e-20)
(0.0688365 1.39088 -1.09431e-20)
(0.0613534 1.3916 4.70451e-20)
(0.0560229 1.36858 7.03835e-21)
(0.0464238 1.39279 4.18674e-21)
(0.107604 2.35841 -1.49005e-19)
(0.0962756 2.4074 0)
(0.169329 2.03236 1.08585e-19)
(0.114574 1.7026 3.98067e-20)
(0.234695 2.03044 -8.97407e-20)
(0.198992 2.42065 0)
(0.261763 2.37055 -6.06146e-19)
(0.301912 2.36824 4.28106e-19)
(0.228415 1.98992 -2.50132e-19)
(0.154844 2.14846 1.6963e-19)
(0.141394 2.25473 0)
(0.0191219 1.87705 1.01776e-20)
(0.0013163 2.38318 -2.67902e-20)
(0.00671222 2.14108 0)
(0.012018 2.44736 -1.37068e-20)
(0.029662 2.28984 6.72817e-21)
(0.0188308 1.42998 -8.39483e-21)
(0.0155 1.41158 1.40815e-19)
(0.0142003 1.41997 -4.6324e-20)
(0.0237447 1.42585 -3.93637e-20)
(0.0279457 1.45424 0)
(0.00955336 1.40364 0)
(0.00288952 1.30901 -6.24044e-20)
(0.00426273 1.39808 1.80588e-20)
(0.0108588 1.39569 0)
(0.0119713 1.29997 -4.69463e-20)
(0.02266 1.21486 9.50256e-20)
(1.04085 0.0121439 0)
(1.04709 0.00843129 -6.78368e-20)
(1.03893 0.0227581 -4.89298e-19)
(1.04862 0.0214094 0)
(1.05245 0.0211882 0)
(1.03655 0.0124221 -6.80641e-21)
(1.03124 0.0122774 7.86524e-19)
(1.03176 0.0173245 9.53664e-19)
(1.02564 0.0212774 0)
(1.02261 0.0218343 0)
(1.03539 0.0263141 4.88173e-19)
(1.02601 0.0280866 0)
(1.02407 0.02776 0)
(-0.0185532 2.02333 0)
(-0.00177372 1.66294 -4.41088e-21)
(-0.00585456 1.76671 -3.22333e-20)
(-0.00368696 1.40451 0)
(-0.0073546 1.56828 -2.4114e-20)
(-0.0118238 1.4809 1.4649e-20)
(-0.00990684 1.42071 0)
(0.387911 1.63552 0)
(0.375833 1.30981 -7.51388e-20)
(0.300324 1.33959 0)
(0.427276 1.30848 1.06936e-20)
(0.478623 1.47333 0)
(0.458788 1.41751 2.36298e-20)
(1.03602 2.67074 -1.54235e-20)
(0.968282 2.3993 -9.16993e-19)
(0.921674 2.18855 1.02678e-18)
(0.851979 2.36854 2.42528e-19)
(0.847301 2.47975 0)
(0.916977 2.47578 0)
(0.931415 2.36449 0)
(0.91037 2.35426 -9.4725e-19)
(0.685787 2.44284 -3.95816e-19)
(0.799162 2.43219 -9.80801e-20)
(0.809411 2.40628 7.44754e-20)
(0.695092 2.3872 0)
(0.800432 2.3825 0)
(0.758432 2.39616 -3.69148e-19)
(0.766688 2.46955 0)
(0.637211 1.09446 0)
(0.479677 0.892587 -5.21518e-19)
(0.573665 0.940869 -3.29481e-20)
(0.518559 1.02777 0)
(0.519035 0.968471 7.80041e-19)
(0.80654 0.888396 -1.29197e-19)
(0.814255 1.0237 0)
(0.789859 0.99069 1.8398e-19)
(0.674559 1.03476 0)
(0.675414 0.936728 0)
(1.16228 2.74752 -2.31802e-19)
(1.13968 2.81095 -9.95154e-20)
(0.927298 2.3234 1.04736e-19)
(0.895282 2.3033 -8.43693e-20)
(1.12809 2.72055 0)
(1.08211 2.68988 1.01487e-19)
(1.08754 2.47379 -3.14445e-19)
(0.982169 2.22758 -3.01574e-20)
(0.490515 1.3234 0)
(0.506982 1.0562 -1.25245e-19)
(0.579899 1.16799 0)
(0.848985 0.251476 0)
(0.755957 0.200326 0)
(0.662606 0.154621 0)
(0.839576 0.252642 -6.32808e-19)
(0.725198 0.245723 3.74259e-19)
(0.92199 0.0914746 -4.12138e-19)
(0.924381 0.133386 0)
(0.912661 0.142249 1.78102e-19)
(0.848655 0.11854 7.12081e-19)
(0.812697 0.0792837 -4.46217e-19)
(1.15257 3.34386 -7.13047e-19)
(1.20205 3.26355 0)
(1.15002 3.37319 -1.48355e-18)
(0.638589 3.53518 1.25747e-18)
(0.858766 3.10487 6.8263e-20)
(0.524912 0.784364 6.08643e-19)
(0.421442 0.78204 0)
(0.297306 0.344677 -1.47455e-19)
(0.483528 0.647723 8.53941e-19)
(0.575016 0.329541 -1.89731e-19)
(0.51907 0.460729 2.27396e-19)
(0.676228 0.516538 4.82349e-19)
(0.722497 0.558512 0)
(0.67191 0.570077 0)
(0.639993 0.526584 0)
(1.01288 0.620137 8.66767e-20)
(0.926251 0.561729 -5.09042e-19)
(0.952227 0.592852 3.82752e-19)
(0.981085 0.532925 -3.94778e-19)
(1.09017 0.4995 0)
(1.09881 0.59113 -9.56227e-20)
(0.856989 0.419026 -8.28573e-19)
(0.854582 0.406547 -1.02757e-18)
(0.785932 0.401748 6.29121e-19)
(0.794978 0.390112 -6.39883e-19)
(0.842597 0.345465 -5.19334e-19)
(0.788591 0.341748 6.34808e-19)
(1.02677 0.00620394 -4.95309e-19)
(1.02647 0.00643398 1.00813e-18)
(1.02956 0.000328613 6.28421e-19)
(1.03376 0.00123054 -7.56914e-19)
(1.03394 0.00936458 0)
(1.03022 0.0100515 -1.23144e-18)
(0.0642278 1.63851 1.85225e-20)
(0.0528125 1.59081 0)
(0.091278 1.68772 1.24647e-19)
(0.0984939 1.66875 -1.10389e-19)
(0.0927079 1.54981 2.59339e-20)
(0.0919589 1.55149 0)
(0.0128044 1.69588 0)
(-0.003286 1.512 1.09591e-20)
(-0.00168966 1.45845 -9.85476e-21)
(-0.00867945 1.5651 5.2716e-21)
(0.00200291 1.88741 1.60895e-20)
(-0.0100768 1.94082 -4.04684e-21)
(0.496706 1.35249 -2.80243e-19)
(0.490411 1.35188 3.08088e-19)
(0.455087 1.30402 -3.34844e-20)
(0.436898 1.28083 7.88808e-21)
(0.643571 1.31116 0)
(0.557784 1.40186 1.04489e-19)
(0.574222 1.40875 -1.01726e-19)
(0.469395 1.29674 3.26973e-20)
(0.524993 1.2433 0)
(0.576311 1.20544 0)
(0.652811 2.40263 5.81444e-19)
(0.668504 2.4448 1.2591e-18)
(0.712876 2.45559 -8.67665e-19)
(0.608867 2.42951 -2.01768e-19)
(0.559384 2.51907 2.83933e-19)
(0.508717 2.49424 -7.56991e-19)
(0.977728 2.37099 -5.74747e-19)
(1.01129 2.3829 0)
(0.925297 2.1666 -6.58787e-19)
(1.05331 2.6689 0)
(1.05567 2.65549 0)
(0.593031 2.25055 -1.36685e-19)
(1.0339 3.15002 1.20687e-19)
(0.905152 3.02073 -2.25431e-20)
(0.256882 0.823476 0)
(0.279919 0.662466 -3.18205e-19)
(0.453662 0.624432 -3.21505e-19)
(0.373121 1.99397 0)
(0.458987 2.7765 -4.75213e-20)
(0.411448 2.53886 0)
(0.725363 0.669568 -8.33545e-19)
(0.808979 0.691643 1.11065e-18)
(0.82853 0.632274 -1.09703e-18)
(0.701798 0.634521 -1.06401e-19)
(0.755965 0.594512 -4.35071e-19)
(0.998474 2.7476 -9.17942e-20)
(1.04074 2.81087 -1.70952e-19)
(0.62766 2.10994 7.18729e-19)
(0.57933 1.67961 -5.11419e-19)
(0.691161 1.88222 -4.1385e-19)
(0.985044 2.43194 -1.13111e-19)
(0.992672 2.42497 3.01494e-19)
(0.644439 1.81343 2.87589e-20)
(0.437121 1.30171 1.46553e-19)
)
;

boundaryField
{
    wall-4
    {
        type            noSlip;
    }
    velocity-inlet-5
    {
        type            fixedValue;
        value           uniform (1 0 0);
    }
    velocity-inlet-6
    {
        type            fixedValue;
        value           uniform (0 3 0);
    }
    pressure-outlet-7
    {
        type            zeroGradient;
    }
    wall-8
    {
        type            noSlip;
    }
    frontAndBackPlanes
    {
        type            empty;
    }
}


// ************************************************************************* //
