/*--------------------------------*- C++ -*----------------------------------*\
| =========                 |                                                 |
| \\      /  F ield         | OpenFOAM: The Open Source CFD Toolbox           |
|  \\    /   O peration     | Version:  2206                                  |
|   \\  /    A nd           | Website:  www.openfoam.com                      |
|    \\/     M anipulation  |                                                 |
\*---------------------------------------------------------------------------*/
FoamFile
{
    version     2.0;
    format      ascii;
    arch        "LSB;label=32;scalar=64";
    class       volScalarField;
    location    "91";
    object      p;
}
// * * * * * * * * * * * * * * * * * * * * * * * * * * * * * * * * * * * * * //

dimensions      [0 2 -2 0 0 0 0];

internalField   nonuniform List<scalar> 
918
(
0.560619
1.1679
0.000376545
0.56009
-0.0126733
1.13489
-0.512529
0.652871
0.540829
-0.1046
-0.055604
0.542789
0.995582
0.7623
-1.12319
-0.0138874
0.654127
-0.381311
0.539965
-0.0757215
0.674013
0.547359
0.550383
0.540959
0.599973
0.733789
0.876842
0.0324921
0.0131793
0.00781634
-0.0121094
-0.0389013
-0.0337123
1.01854
1.06963
1.09233
0.508534
0.3363
-0.377849
-0.452213
-0.437765
-0.537397
0.655205
0.656828
-0.215718
0.654431
0.651973
0.527827
0.5402
0.541116
0.542121
0.541113
0.54249
0.403908
-0.105706
-0.137162
-0.0853839
-0.0785225
0.0494856
-0.0542701
-0.0554113
-0.0551454
-0.0565953
0.457575
0.53728
0.533894
0.547022
0.556286
1.10745
1.07938
1.10553
1.01917
1.03567
0.973566
0.946267
0.782281
0.804191
0.748667
0.73513
-1.55065
-2.49406
-0.537629
-0.289205
-0.0108516
-0.0122032
-0.00690359
0.651511
0.652743
0.654462
0.656004
1.07954
-0.378216
-0.48143
0.54011
0.538922
0.547224
0.547927
0.543948
0.543037
-0.0657947
-0.0627991
-0.0630234
-0.0705277
-0.067944
0.645046
0.652197
0.541485
0.538485
0.564009
0.584705
0.5744
0.280059
0.610733
0.626847
0.570188
0.729363
0.72173
0.731061
0.850377
0.814788
0.913804
0.936872
0.0194454
-0.000443557
-0.0181927
-0.0212782
-0.020472
0.50436
0.496892
0.52481
0.511975
0.514486
0.253938
0.12175
0.420625
0.444994
-0.297513
-0.366176
-0.43044
-0.460093
-0.567844
0.616066
0.657599
0.654828
-0.2249
-0.15288
-0.288028
-0.0794443
-0.142912
0.51807
0.5251
0.520089
0.535668
0.530129
0.532094
0.54448
0.541548
0.543108
0.465902
0.589174
0.330226
0.294448
-0.242631
-0.152452
-0.241046
-0.0683186
-0.0654946
0.064027
0.0900141
0.0358863
0.0238197
-0.0617056
-0.0571231
-0.0591397
-0.0565739
-0.0585061
0.450278
0.438989
0.470299
0.477878
0.524026
0.525433
0.529819
0.527888
0.896997
0.91933
0.926985
0.90073
-3.47515
-6.24139
0.0321566
0.167147
-0.00707655
-0.0101363
0.00178797
-0.0063623
-0.00061081
-0.0023156
-0.0122078
-0.0136325
-0.0084255
-0.0072662
0.646667
0.64722
1.0028
1.01109
0.97732
0.930585
0.5284
0.530432
0.535902
0.531803
-0.0591847
-0.0610131
-0.0596089
0.65154
0.649069
0.650632
0.241287
0.150891
0.331411
0.360767
0.640414
0.62983
0.638814
0.629804
0.667089
0.94427
0.962493
0.960709
0.969096
1.01313
1.02952
0.994904
0.483738
0.493756
0.488684
0.527618
0.525543
0.526379
0.522837
0.523824
0.521977
-0.0277659
-0.405165
0.491647
0.507552
0.494391
0.495631
0.696358
0.775269
0.655683
0.656535
0.656003
-0.00930486
-0.0679085
0.249403
0.214891
0.389449
0.426082
0.404891
0.868273
0.828582
0.878747
0.85191
0.813217
0.83889
-0.356851
-1.8474
-0.971425
0.513574
0.32955
0.416068
0.00532322
-0.0116756
-0.00690462
1.00371
1.07464
0.644879
0.820428
0.822314
0.70143
0.730693
0.788893
0.717202
0.750248
0.782228
0.760791
0.571494
0.504758
0.521749
0.844117
0.899598
0.120133
0.0573738
0.0136579
0.10936
0.167348
0.141016
1.03428
0.952741
1.02236
0.538248
0.538974
-0.00905025
-0.0255374
0.543242
0.5433
-0.0143137
-0.00400718
0.398992
-0.830333
0.0974152
0.53186
0.521677
0.538847
-0.0899556
0.355274
-0.0550751
0.0456443
-0.0130079
0.533174
0.468749
0.427725
-0.0037791
-0.0235689
-0.0652461
-0.211173
0.535917
0.534222
0.538314
0.539249
0.539934
-0.0229306
-0.0191753
-0.0125388
-0.0591033
-0.0509524
-0.0665246
0.502703
0.521787
-0.169615
0.538466
0.540606
0.540422
0.533711
0.539328
0.53759
-0.0143787
-0.0184363
-0.0209759
0.220804
0.354219
0.634446
0.71854
0.607568
0.386203
0.153632
0.540125
0.601959
0.509516
0.660991
0.653106
0.650038
0.162828
0.0118554
0.17239
0.114255
0.529715
0.528457
0.519927
0.51688
0.533714
0.531824
0.536392
0.533423
0.536377
0.537752
-0.0467579
-0.0728652
-0.0824525
-0.14902
0.310099
0.570539
0.255298
0.284402
0.140647
-0.0503243
-0.0519521
-0.0525214
-0.0587803
-0.000839381
-0.0288035
0.0399475
0.0394177
0.00984935
-0.0157348
-0.0117736
-0.0236172
-0.016362
0.526459
0.52637
0.531242
0.539804
0.47844
0.482218
0.446902
0.467795
0.452927
0.391295
0.427002
0.402071
-0.00899974
-0.00197995
-0.00554101
-0.0221126
-0.0185503
-0.039881
-0.0372225
-0.031494
-0.0282488
-0.0353896
-0.0583266
-0.062564
-0.16885
-0.285108
0.989452
0.908418
0.14225
0.525055
0.531521
0.528277
0.533221
0.536352
0.537145
0.534845
0.531387
0.52212
0.523828
0.520343
0.521278
-0.0999779
-0.242829
-0.0708023
-0.146947
0.149346
0.631502
0.366118
0.300901
0.29645
0.526278
0.901807
0.682843
0.649796
0.636882
-0.345654
0.0379614
-0.284076
0.326322
0.159929
0.635582
0.683346
0.704324
0.653397
0.607295
-0.0939816
0.5594
-0.0753123
-0.0221728
0.18059
0.054399
0.638731
0.641901
0.647717
0.642104
0.651019
0.643899
0.623991
0.626096
0.641838
0.648675
0.481736
0.25147
0.20161
0.163114
0.646387
0.515706
0.564409
0.491107
0.524948
0.52755
0.526226
0.507539
0.515134
0.510649
0.517234
0.520771
0.529418
0.529903
0.525146
0.527278
-0.0536841
-0.0595586
-0.0237034
-0.133407
-0.126035
-0.188848
-0.0577018
0.0780677
0.0393986
0.239444
0.342661
0.0547249
-0.0546438
-0.027601
0.0163365
0.182766
0.211519
0.0749095
0.161188
0.154243
0.134513
0.237521
0.240169
-0.031721
-0.0323659
-0.0365406
-0.0402893
0.0169644
0.0888667
0.0979649
-0.0125219
-0.0162218
-0.0501777
-0.0532075
-0.0223116
-0.0271761
-0.0228877
0.00496777
-0.0564096
-0.0242663
-0.01057
-0.0127477
-0.0114348
-0.0164725
0.521147
0.522923
0.523137
0.532158
0.544294
0.558992
0.524549
0.50071
0.491466
0.494471
0.467375
0.477715
0.473532
0.487194
0.508487
0.517005
0.515324
0.518142
0.500485
0.502184
0.488692
0.49238
0.467401
0.447956
0.435882
-0.0469198
-0.00913492
-0.0173095
-0.0420401
-0.0127911
-0.0243339
-0.0158829
0.00343645
-0.0137011
-0.0142836
-0.0242643
-0.0326352
-0.0325721
-0.0705695
0.0172447
-0.183098
-0.217919
-0.291702
0.892083
1.01622
0.810359
0.583438
0.605038
0.848124
0.931779
0.543121
0.736089
0.758811
0.590444
0.858136
0.52991
0.529503
0.527102
0.526577
0.527799
-0.00321936
0.104452
0.0997722
0.165471
0.281133
0.391643
0.32649
0.198226
0.328043
0.330835
0.623699
0.635534
0.592186
0.616412
0.6174
0.427969
0.503642
0.555325
0.516354
0.568939
0.590779
0.54443
0.577947
0.526642
0.481768
0.477868
0.427658
0.447118
0.422595
0.405808
0.520538
0.497134
0.508069
0.498194
0.520346
0.546461
0.543571
0.566296
0.581329
0.500967
0.456081
0.465316
0.495538
0.457188
0.472661
0.488472
0.239533
0.142371
0.224922
-0.0590207
0.00813122
-0.0028485
-0.0523798
0.000901276
0.284571
-0.404086
-0.381315
-1.00525
0.510178
0.943463
0.557031
0.537269
0.650631
0.639516
0.644112
0.660225
0.653348
0.634775
0.642551
0.647439
0.591612
0.61289
0.626886
0.624298
0.526981
0.381598
0.381764
0.32882
0.198847
0.239363
0.434626
0.359214
0.284371
0.284418
0.459108
0.345119
0.416004
0.448285
0.379224
0.333835
0.53767
0.603636
0.596672
0.570703
0.479577
0.490885
0.516115
0.549764
0.57298
0.607698
0.51664
0.522601
0.523828
0.5213
0.518564
0.521662
0.521914
0.524496
0.525116
0.528134
0.527202
-0.0508125
-0.037607
-0.0481543
-0.0594441
-0.0157419
-0.0182508
0.0251532
0.012535
-0.0148812
-0.0103946
-0.0311634
-0.0353113
-0.0324598
-0.0251657
0.104716
0.11713
0.10151
0.0620651
0.253864
0.382836
0.45739
0.332286
0.227286
0.251089
0.269233
-0.012444
0.0119799
-0.000476667
0.0393254
0.0320493
-0.0422965
-0.0470719
-0.0445567
-0.033961
-0.0258177
-0.0476686
-0.0569222
-0.0456546
-0.0494905
-0.0525171
-0.0591201
0.502994
0.496485
0.498077
0.492041
0.490749
0.504943
0.509243
0.511251
0.516787
0.51903
0.50909
0.514526
0.518467
-0.017798
-0.0413936
-0.0439161
-0.0391918
-0.0392507
-0.0372596
-0.0397703
0.128918
0.0603607
0.063247
0.0151684
-0.118579
-0.0606544
0.495737
0.493797
0.481889
0.724576
0.573536
0.494747
0.591774
0.697587
0.282425
0.475662
0.312277
0.890816
0.788134
0.934257
0.545074
0.25239
0.419507
0.457992
0.274605
0.352695
0.325906
0.215954
0.246169
0.286903
0.384005
0.270948
0.249418
0.00613655
0.196661
0.305997
0.288121
0.411023
0.470568
0.274431
0.193252
0.148138
0.60807
0.627354
0.64065
0.612995
0.635716
0.58495
0.57681
0.592273
0.600529
0.59404
-0.734455
-0.440512
-1.38883
-0.716855
-0.258673
0.540423
0.516996
0.774315
0.644048
0.668935
0.653699
0.617631
0.589436
0.614988
0.6347
0.3402
0.451116
0.4259
0.43266
0.335487
0.264976
0.564782
0.562539
0.595992
0.620112
0.591093
0.621877
0.514445
0.514164
0.513628
0.509869
0.508133
0.510474
0.0599454
0.0272066
0.0689037
0.0513672
0.0291414
0.0172031
-0.0197382
-0.0302106
-0.0362301
-0.0348213
-0.0199506
-0.016276
0.177905
0.106071
0.0332306
0.0598281
0.0022713
-0.0669423
-0.0865856
0.0202051
0.117785
0.107846
0.409758
0.657416
0.477957
0.644937
0.48835
0.543951
0.470134
0.461103
0.485168
0.383495
0.463959
0.263743
-0.245985
-0.155942
0.799871
0.809826
0.583743
0.413389
0.179071
0.352008
0.541275
0.469951
0.50468
0.572996
0.559343
0.0405072
0.0944907
0.392294
0.619019
0.248061
0.238526
0.2321
0.419822
0.336263
)
;

boundaryField
{
    wall-4
    {
        type            zeroGradient;
    }
    velocity-inlet-5
    {
        type            zeroGradient;
    }
    velocity-inlet-6
    {
        type            zeroGradient;
    }
    pressure-outlet-7
    {
        type            fixedValue;
        value           uniform 0;
    }
    wall-8
    {
        type            zeroGradient;
    }
    frontAndBackPlanes
    {
        type            empty;
    }
}


// ************************************************************************* //
