/*--------------------------------*- C++ -*----------------------------------*\
| =========                 |                                                 |
| \\      /  F ield         | OpenFOAM: The Open Source CFD Toolbox           |
|  \\    /   O peration     | Version:  2206                                  |
|   \\  /    A nd           | Website:  www.openfoam.com                      |
|    \\/     M anipulation  |                                                 |
\*---------------------------------------------------------------------------*/
FoamFile
{
    version     2.0;
    format      ascii;
    arch        "LSB;label=32;scalar=64";
    class       surfaceScalarField;
    location    "91";
    object      phi;
}
// * * * * * * * * * * * * * * * * * * * * * * * * * * * * * * * * * * * * * //

dimensions      [0 3 -1 0 0 0 0];

oriented        oriented;

internalField   nonuniform List<scalar> 
1300
(
3.75095
5.62643
-3.27424
3.75095
-7.75222
5.62643
-4.41316
4.41316
-0.342119
0.342119
1.87638
1.87457
-2.69524
2.69524
-2.02388
2.02388
-2.52146
2.52146
-5.24648
5.24648
-5.06901
5.06901
4.64882
-4.64882
-6.31781
6.31781
-0.936236
0.936236
-3.69526
3.69526
3.16958
-3.16958
-1.9186
1.9186
0.0987986
-0.0987986
-0.553467
4.30442
3.19749
3.19749
-2.00645
2.00645
-4.87058
4.87058
6.21811
-6.21811
5.25094
-5.25094
-1.9767
-2.49208
1.80011
-11.4618
-5.95211
-5.95211
-8.44037
8.44037
-2.81394
2.81249
2.94647
-2.94647
-1.76351
1.76351
-4.37723
-0.03593
-4.37723
4.38157
0.0315897
4.38157
-0.452753
0.110634
-0.452753
4.01869
-4.01869
0.235738
0.106381
0.235738
3.06541
-3.06541
-1.87712
3.75351
1.87383
-1.8719
6.17632
-1.87905
3.75362
-6.01217
6.01217
-2.94152
0.246288
-2.94152
2.48174
0.213492
2.48174
-6.85119
6.85119
-2.08234
0.0584653
-2.08234
1.97106
0.0528195
1.97106
2.88225
-2.88225
-2.62769
0.106226
-2.62769
2.39257
0.128892
2.39257
0.353505
5.27292
-5.97994
8.79242
-5.27292
0.0264484
5.20836
0.038114
5.20836
-5.10597
0.0369552
-5.10597
5.01281
0.056199
5.01281
4.73084
-0.0820206
4.73084
-4.76914
0.120322
-4.76914
-3.36789
-4.05869
-6.46848
0.150672
-6.46848
-1.0255
0.0892607
-1.0255
0.823802
0.112434
0.823802
-3.68807
3.68807
-4.11852
0.423266
-4.11852
3.12395
0.0456257
3.12395
1.86849
1.88247
5.61944
-5.61944
2.44986
-1.88288
-0.0357226
-1.88288
-2.00093
-3.25
2.00093
-0.0823332
-0.142322
0.24112
-0.142322
3.15945
0.0380314
3.15945
2.2353
0.157273
-2.2353
0.228846
3.28137
-3.28137
1.33444
0.672011
1.33444
-5.56328
5.56328
4.95692
0.0558949
-4.95692
0.086341
6.15636
0.0617441
6.15636
-6.19953
-0.0185788
-6.19953
2.52514
-5.01722
-2.65756
6.13511
0.182692
-6.13511
0.183005
2.91846
0.0280042
2.91846
-2.91777
2.91777
-2.98488
0.0384077
-2.98488
-2.16216
0.398644
-2.16216
1.46562
0.297892
1.46562
-4.28015
-0.0970735
-4.28015
-4.27015
0.151626
4.27015
0.111419
1.13003
-1.13003
-0.58633
0.133576
-0.58633
-4.14469
-0.135466
4.14469
-0.125995
-3.90536
-0.113333
-3.90536
-3.02464
0.0397647
3.02464
0.0407656
3.11291
0.0465406
-3.11291
0.0475076
-1.87081
3.75328
-1.88014
3.75397
-5.63299
-0.379174
-5.63299
6.32312
-0.310949
6.32312
3.33595
0.359309
-3.33595
0.394423
2.31027
0.171477
2.31027
-6.81193
-0.0392535
-6.81193
6.83775
0.0134348
6.83775
2.17903
0.131241
-2.17903
0.0966837
1.9252
0.0458567
1.9252
2.903
-0.0207533
2.903
-2.87607
-0.00617428
-2.87607
2.79017
-2.79017
2.71518
0.0749852
-2.71518
0.0874957
-11.1331
11.1145
-0.0352899
-11.0978
5.17307
5.17307
4.15527
0.575573
4.15527
-4.98825
0.219113
-4.98825
2.69511
-5.35267
3.10801
-6.4759
4.66055
-16.1223
4.28349
-8.34218
6.70708
-6.70708
6.5968
0.110284
-6.5968
0.12832
-1.14388
0.118387
-1.14388
-3.08773
-0.600342
-3.08773
4.32826
-0.640187
4.32826
-3.02786
3.02786
-3.07735
0.049484
3.07735
0.0466027
1.8894
0.0358021
-1.8894
0.00652138
0.167841
0.0678975
-0.167841
0.0255195
3.4971
-0.215733
3.4971
-3.08166
-0.199707
-3.08166
-1.24406
0.100171
1.24406
0.0903867
-5.81429
0.251005
-5.81429
-11.1908
0.0929266
-11.1526
-6.1066
-6.1066
2.33377
11.1262
-2.89388
0.0178059
2.89388
0.0245847
2.97433
0.0535342
-2.97433
0.056557
-2.85695
0.0667796
2.85695
0.0608221
-2.53694
0.374784
-2.53694
-1.06708
1.06708
-1.23022
0.163142
1.23022
0.235404
1.40458
-0.274552
1.40458
0.707323
0.116479
-0.707323
0.120994
-3.80192
-0.10344
-3.80192
6.55891
-0.23579
6.55891
-2.96564
-0.116021
2.96564
-0.0626357
-0.0333034
11.1478
-5.13977
0.0338031
5.13977
-11.2096
11.2434
-3.20673
0.669786
3.20673
0.948536
5.28241
0.280869
-5.28241
0.294161
6.78966
0.04809
-6.78966
0.0825783
-2.59555
-0.49218
-2.59555
-5.05218
-0.58081
5.05218
-0.723923
-11.4749
-0.203677
11.6786
-11.4187
6.01797
0.138397
-6.01797
11.3818
-1.02766
-0.102371
1.02766
0.0394202
1.73323
-0.328653
1.73323
3.69654
-0.199442
-3.69654
-0.105377
-6.71387
-0.0980663
6.71387
-0.154959
-2.15056
-0.444989
2.15056
-0.417332
-4.26714
4.30517
1.90919
-2.37499
-2.64223
-5.62499
1.85184
1.90144
4.3017
-10.122
-6.00028
-9.93904
7.26021
-6.96605
-9.2309
9.14888
7.91617
-8.0295
-5.78465
5.83125
6.483
-6.44224
1.87885
1.87466
8.04086
-7.79457
-15.5646
15.1854
7.58155
-7.52308
15.72
-15.7592
-17.8016
17.8497
-5.70729
5.81352
-6.741
6.73483
-6.97739
6.91476
-2.83485
-3.64105
13.0804
-12.9298
8.64954
-8.68526
-8.6424
9.06567
3.38261
0.92256
3.42915
-1.88213
3.76098
-1.87149
3.78068
2.75533
-5.59018
2.59734
-5.23957
4.40108
4.24846
-4.31875
-1.30625
-5.92502
5.95303
-5.81422
5.87504
9.16841
-9.20434
-1.88518
3.75984
-1.86879
3.77023
-3.42499
-2.35966
3.37937
0.922339
8.04878
5.03165
-8.23148
-1.70757
-8.05133
7.85189
-8.23604
8.03633
-0.432981
5.81966
-5.38668
4.43759
-1.56469
7.38435
5.69552
5.91464
5.86567
-5.5848
1.10038
-6.48706
-6.40072
-2.19775
2.33133
2.08643
-1.98005
6.16627
1.7499
6.04027
-5.77316
-2.25634
-5.8766
3.82036
2.01089
3.86984
4.07857
2.40443
4.11834
3.03039
-3.03602
0.00563395
-3.05673
6.08712
0.723816
-5.41639
-4.49405
4.98526
3.0556
5.19876
-5.56836
-2.22621
-5.17394
-9.51596
-6.04864
-10.0968
10.0583
5.12715
9.74734
-11.9264
11.7715
4.81308
2.76847
4.8659
-4.96121
-2.56188
-4.86452
11.627
-2.64626
-8.98071
-10.292
-7.50956
10.2786
5.44138
10.9347
6.91497
11.0173
4.4154
7.21157
-9.85678
2.34722
-3.8682
-1.83909
-3.78071
3.67593
2.13759
3.80482
-4.21771
-2.52329
-4.1999
-4.29601
-2.68138
4.31677
2.41806
-4.41859
-3.81744
4.53461
2.38014
4.03856
-10.0388
4.30362
-7.94466
-9.17251
-3.75725
-9.04419
3.55833
2.61242
-6.17075
-2.03185
8.57767
-4.32921
7.27142
-5.21718
-3.46808
-5.21066
-6.9047
-1.73771
-6.75307
-8.85716
8.36498
-9.15286
8.51267
12.4734
-5.62663
-6.84676
-3.96848
-2.47376
3.92097
-0.491826
-3.71045
3.71609
0.0505235
3.8312
4.75376
4.26194
-3.88504
-1.92917
-3.82849
3.82501
2.05003
3.89179
6.85955
2.30887
6.89114
-6.63523
-2.56911
-6.7323
9.01692
-8.61827
2.8311
-2.73093
5.40387
2.63246
-5.18814
-2.8632
6.20718
-3.21974
-2.98744
-12.205
10.5211
1.68383
-4.82062
-0.38303
-0.481828
-5.48435
-3.74655
5.36403
0.550611
11.0718
7.3252
-5.51121
5.76221
6.16741
6.22331
-0.177413
5.7914
-5.12162
5.25972
-2.62236
-2.63735
5.493
-5.62847
-1.2393
-5.54746
4.30816
0.411803
1.39034
-1.14922
-1.74493
-0.452816
-1.62394
1.17565
0.910787
1.24354
0.963058
1.36827
-2.93894
0.501149
2.4378
-1.97589
-1.4789
-3.86309
-1.13682
4.99992
5.74885
2.10304
-5.64347
-0.233133
2.50617
-2.39374
-0.816574
-3.04652
2.23209
-3.04866
-3.66279
-2.10165
5.76444
-3.36981
-0.458674
3.31628
0.553565
-3.82731
-2.09771
3.7889
0.329435
-3.12842
6.19094
-3.06253
-5.05759
2.52742
3.5597
4.53831
-4.78958
2.44785
2.34173
-1.22988
4.25151
0.947243
4.42299
-6.96324
4.73703
5.81992
3.24575
-6.17923
1.00529
-5.95795
8.55151
-7.38026
-1.17125
4.16856
4.38294
7.03966
5.43373
-5.65783
12.6975
-1.20947
-6.17079
7.16743
-3.92167
4.85858
-8.78025
-10.2923
4.12153
-9.10582
10.8804
-1.7746
-3.61513
-8.31132
12.721
-1.20023
-11.5207
8.54711
-4.29405
-4.41574
8.70979
-6.94031
6.97762
-1.99211
-4.9855
-10.0772
-5.68204
10.1753
1.59623
-9.94402
12.2912
-2.73245
4.12149
0.744409
4.16735
3.30643
-5.49252
2.18609
3.63388
-5.626
2.07824
-7.57076
-6.71496
12.047
-5.33204
-10.4722
-9.49268
-0.979542
2.53568
9.75557
-9.45065
7.4093
2.04135
3.3007
0.591093
-3.37568
-0.405026
0.233526
4.51295
-4.74647
4.03834
4.19562
3.26255
1.2504
3.84573
2.10729
-3.87032
-0.329582
-4.1643
1.48292
-1.74625
-3.6953
5.17823
-4.06761
0.372307
-2.7441
-3.49762
6.24172
-4.58319
3.0347
3.15625
5.08473
-4.91383
1.41621
-2.39278
-2.52105
2.6514
-4.39764
1.99518
3.18304
4.37533
0.557882
5.87245
6.17456
-8.48487
0.540202
11.2062
-9.49864
2.45915
8.55813
-9.86845
0.37577
-8.66842
1.00358
-5.33279
-5.16717
5.21003
-6.94774
-3.57022
6.23138
0.65976
-6.34279
-0.410278
-6.02027
-2.83689
-6.46526
-3.03587
-6.11699
-8.69371
-1.64765
-7.04606
6.71733
-6.66581
-3.43096
7.38974
1.12294
-7.39428
7.29191
-7.47231
7.14366
0.0954865
3.6206
4.35742
1.88367
-2.39072
4.27438
-5.13131
7.44018
-8.74297
3.61166
4.21983
-6.78894
-4.52314
5.00836
4.00855
5.30626
8.86193
-10.3184
1.45649
-10.6206
11.9516
-1.33098
-16.3699
5.74934
-7.50799
2.43261
0.398493
2.55099
0.540977
2.49875
-3.03972
-2.18995
-2.09956
-2.44332
-3.46462
5.90794
1.08225
-3.53255
2.4503
-3.56774
4.64998
-0.221413
-3.31114
5.26513
-2.76639
5.66363
-3.78915
1.87448
3.44079
5.75446
-2.31367
4.39582
-1.76336
1.93199
-4.24566
-1.53262
-2.95448
5.09207
-3.28724
3.65954
-0.345596
4.00514
-4.04568
0.825943
-0.783129
3.41249
3.64133
4.31706
-3.06667
2.91604
-4.6794
-1.32962
-4.12152
-0.938473
-0.251989
-3.68846
3.94045
5.96011
-6.2121
-5.22471
9.50781
-4.2831
7.67679
-5.37161
-2.30518
-4.24018
-4.3781
3.86539
1.92601
9.6028
0.207137
-5.57875
-4.91448
-3.96594
3.09678
2.16294
-1.69047
3.3743
2.1723
-0.781953
0.434947
0.808597
1.76646
-1.33151
0.315107
1.45135
-0.834117
1.69004
0.816133
-1.80652
0.182579
-1.35625
3.58834
1.08155
-1.99233
0.660822
0.979243
-3.60161
5.08447
-2.69504
-2.38943
6.06371
1.14465
-3.83969
4.40281
-3.991
2.40691
-3.54374
-1.43277
-5.42378
-3.67387
-2.51391
4.96421
-3.39403
5.49707
1.30143
-5.26394
6.56537
-3.73166
1.63001
-3.03931
3.85544
-0.918318
-2.12099
2.90115
2.86329
-3.09181
0.0452928
-0.190666
2.40195
-2.59262
-0.646714
-2.6226
-4.57374
4.90317
-2.10508
4.55293
2.1693
-1.91734
6.47027
1.80863
-3.72597
-3.24896
-3.70763
-1.38424
3.15407
-0.568578
-4.29594
-5.55408
4.1647
0.258288
-7.07895
7.89631
-0.817355
-4.02336
-0.71367
4.88223
-6.09459
0.46859
-4.01635
3.87996
4.82721
5.08549
-11.2994
-0.221281
-6.1723
1.11881
-7.29111
5.50176
-3.52511
7.64664
-10.2953
6.86436
-9.17239
6.47539
-0.815717
6.23534
-4.04925
2.74537
-8.4274
-6.83117
5.56696
-2.79849
6.31137
-3.17885
9.49022
-5.91131
5.3458
4.14441
-1.02051
-4.19014
-5.35881
4.3383
-0.013003
4.15434
4.98045
-2.87316
4.65087
2.27007
-4.66285
-2.12758
-6.49629
1.83345
-3.34005
-1.92141
3.75486
3.16331
3.75441
1.23381
-3.34938
7.20134
-8.18088
-1.8693
-3.29787
5.35239
-1.01409
3.44849
-6.74636
-1.8843
4.77266
-0.777318
-3.99535
0.853967
-4.42419
1.67579
-6.09998
5.27195
-5.68222
2.2209
-9.72889
-5.17338
-5.13396
-2.2566
-5.21572
-7.55098
5.29439
-1.80164
5.49027
-8.47822
7.7009
-3.47335
8.76774
-5.41615
-1.04911
5.83349
1.31017
10.0779
0.228518
-4.75166
-1.92805
3.8269
-1.89885
1.16874
-3.45994
0.366957
2.502
3.56171
-6.81015
0.0212126
-4.73045
-3.90983
7.91838
5.59798
11.5581
1.23968
9.09603
-1.17765
10.3357
4.12861
4.36401
-2.97566
4.43215
0.964787
4.57645
-0.92742
2.8019
1.62357
1.71283
0.680908
2.30381
1.33753
3.12975
0.0900258
-2.00954
4.61449
-8.58043
-0.964262
-8.00486
1.14402
5.70177
-4.55775
2.90565
-0.742713
1.0068
-0.146073
-1.14401
1.29008
-2.78343
-1.92596
-0.474613
-1.69261
2.35344
1.89573
-1.87882
-0.904606
0.349166
-4.02304
3.19457
-3.14928
-0.285985
6.27938
-2.81264
0.220023
-1.18263
-2.40258
-2.85539
2.67281
6.1764
0.293874
3.11387
5.19704
3.09933
0.226175
3.87886
-5.65346
-3.6919
-5.87474
-0.372983
4.50925
1.76361
7.99196
5.90802
4.89393
-1.85243
-10.0333
6.49166
-2.05951
5.16068
-1.16533
-4.93465
5.06068
2.3795
-5.72043
0.0382113
-4.89644
-6.95595
-0.510084
8.21099
-9.56783
8.51872
5.68183
1.36422
-4.3929
-0.741068
4.22975
0.134258
10.47
-1.13058
-6.68913
7.81971
-4.57119
3.60692
0.727459
2.64684
2.01754
1.27483
-5.41429
-9.97205
-2.07531
-1.52629
-4.46474
0.535175
-2.4309
6.20996
-2.60304
3.90478
5.21667
6.22346
-2.12559
-4.08651
6.40869
-2.50391
3.71956
)
;

boundaryField
{
    wall-4
    {
        type            calculated;
        value           uniform 0;
    }
    velocity-inlet-5
    {
        type            calculated;
        value           uniform -3.75095;
    }
    velocity-inlet-6
    {
        type            calculated;
        value           uniform -5.62643;
    }
    pressure-outlet-7
    {
        type            calculated;
        value           nonuniform List<scalar> 8(3.27424 7.75222 4.46877 9.66167 7.42657 5.1827 5.80313 8.94404);
    }
    wall-8
    {
        type            calculated;
        value           uniform 0;
    }
    frontAndBackPlanes
    {
        type            empty;
        value           nonuniform List<scalar> 0();
    }
}


// ************************************************************************* //
