/*--------------------------------*- C++ -*----------------------------------*\
| =========                 |                                                 |
| \\      /  F ield         | OpenFOAM: The Open Source CFD Toolbox           |
|  \\    /   O peration     | Version:  2206                                  |
|   \\  /    A nd           | Website:  www.openfoam.com                      |
|    \\/     M anipulation  |                                                 |
\*---------------------------------------------------------------------------*/
FoamFile
{
    version     2.0;
    format      ascii;
    arch        "LSB;label=32;scalar=64";
    class       volVectorField;
    location    "91";
    object      U;
}
// * * * * * * * * * * * * * * * * * * * * * * * * * * * * * * * * * * * * * //

dimensions      [0 1 -1 0 0 0 0];

internalField   nonuniform List<vector> 
918
(
(0.98516 -0.000508493 0)
(0.00501873 2.96624 0)
(0.00848824 0.878197 0)
(0.979705 0.00214494 0)
(-0.0125948 2.06152 3.77412e-20)
(-0.00705079 2.9488 -2.42837e-18)
(0.823903 1.17039 4.50298e-19)
(0.101964 0.0778604 -1.45235e-20)
(0.999909 -0.000275406 0)
(0.0660953 0.741337 0)
(0.0198404 0.479999 0)
(0.731826 0.00708489 0)
(0.0110906 2.9304 0)
(0.00278029 2.79502 0)
(-0.0179997 3.1454 7.81562e-19)
(-0.0209916 1.91944 1.22636e-20)
(0.286851 0.0620711 1.02244e-18)
(0.18994 1.14716 3.16363e-19)
(0.962709 0.00501256 0)
(0.00689666 0.41159 0)
(-0.00434864 0.0150366 -6.67559e-19)
(1.00197 -0.00497406 0)
(1.00023 -0.00978296 0)
(0.975741 -0.00643828 0)
(0.598078 0.0311394 0)
(0.0133551 2.64334 0)
(-0.0148077 2.90997 8.90878e-19)
(0.0151825 0.921163 0)
(-0.0211666 1.1842 0)
(0.0176461 0.905608 0)
(-0.0160804 2.58488 0)
(-0.00155648 2.11579 -3.01425e-20)
(-0.0114377 1.89868 0)
(-0.020607 2.98761 -8.7164e-23)
(-0.0166816 3.00529 1.88719e-18)
(0.00209838 3.00017 0)
(0.871484 -0.0096598 0)
(0.399905 0.928182 1.82626e-19)
(0.810755 1.18379 -5.14074e-19)
(0.961934 1.03051 5.61162e-19)
(0.678084 1.27569 -1.04944e-19)
(0.67769 1.24963 6.01114e-19)
(0.130597 0.119839 1.42321e-20)
(0.140428 0.059919 0)
(1.16819 0.567172 0)
(0.095051 0.087287 6.37856e-20)
(0.0694044 0.0526463 -6.65387e-20)
(0.919932 -0.00745758 0)
(1.00027 0.000163026 0)
(0.999909 0.000340085 0)
(1.00363 -0.00775678 0)
(1.00096 -0.000916886 0)
(1.00017 3.85574e-05 0)
(0.0726308 1.82617 -7.72023e-19)
(0.0329975 0.94487 0)
(0.0987343 0.820881 0)
(0.0152987 0.89244 0)
(0.0411751 0.659221 0)
(0.00725858 2.01626 0)
(0.00257077 0.770188 0)
(0.0192719 0.503907 0)
(-0.00201231 0.759085 0)
(0.014569 0.458152 0)
(0.842247 -0.0156587 0)
(0.842386 0.0272127 0)
(0.757751 0.00394292 0)
(0.800739 0.0294609 0)
(0.700865 0.0191529 0)
(0.0146803 3.00041 8.99591e-19)
(0.0114848 3.00807 0)
(0.00610644 3.00274 0)
(0.0135314 2.99736 1.01971e-23)
(0.00796335 2.95849 -1.33701e-18)
(0.0144927 2.98204 0)
(0.0108688 2.90359 0)
(0.024476 2.93092 2.03217e-24)
(0.00469636 2.82482 0)
(0.0300114 2.91657 0)
(-0.00510883 2.7458 0)
(0.302839 3.53553 0)
(-0.131491 3.61562 0)
(0.136471 3.23508 -7.27306e-19)
(-0.0140439 2.97511 0)
(-0.0285416 1.98752 0)
(-0.00715757 2.17032 -1.20955e-20)
(-0.0148109 1.92795 6.99743e-21)
(0.337256 0.137349 -3.54971e-19)
(0.317447 0.0373452 -3.45035e-19)
(0.291184 0.139952 -1.06331e-18)
(0.25086 0.0672162 -6.90735e-19)
(0.229959 0.986564 0)
(0.27348 1.29686 -3.68422e-19)
(0.368639 1.23293 6.15052e-19)
(0.98742 0.00858288 0)
(0.941841 0.00579923 0)
(1.0003 0.000581798 0)
(1.00286 0.00931049 0)
(1.00301 0.00847595 -2.76265e-18)
(0.991906 0.00969346 2.08625e-18)
(-0.0128279 0.747871 0)
(0.0121381 0.419762 0)
(-0.056518 1.00821 0)
(-0.0332756 0.799332 0)
(0.000620453 0.415928 0)
(-0.0951185 0.0857485 2.07236e-19)
(0.0415364 0.0613998 0)
(0.993557 -0.0083683 0)
(0.954476 -0.00653438 0)
(0.743513 0.030127 0)
(0.677958 0.0286427 0)
(0.660583 0.026318 0)
(0.973078 -0.00704507 0)
(0.585372 0.0740416 0)
(0.458258 -0.00127577 1.54975e-18)
(-0.0375339 2.86124 6.51916e-19)
(0.0412214 2.90993 0)
(0.0532047 2.88648 0)
(-0.00464679 2.70129 0)
(-0.0133698 2.98518 8.4225e-19)
(-0.0177658 2.89497 0)
(-0.0153842 2.98809 -2.61426e-18)
(-0.0133138 2.92517 8.95224e-19)
(-0.0384981 1.35438 0)
(-0.00858604 1.38626 0)
(-0.00745423 2.13526 5.84992e-22)
(-0.00656446 2.09671 0)
(-0.0233669 1.90664 0)
(0.938718 -0.00734963 0)
(0.85769 -0.00997097 0)
(0.862566 0.00565242 0)
(0.949682 -0.00778285 0)
(0.88415 -0.00820165 0)
(0.510826 1.12073 -2.30404e-19)
(0.560115 1.17181 0)
(0.364799 0.873045 3.38843e-20)
(0.307967 0.731997 0)
(0.924391 1.06635 -1.54915e-19)
(1.04406 0.875955 3.16699e-19)
(0.361423 1.35964 0)
(0.529887 1.33129 0)
(0.550984 1.26991 0)
(0.121603 0.184241 -3.04163e-19)
(0.161557 0.115769 0)
(0.173627 0.10022 1.90098e-19)
(1.01464 0.930152 0)
(1.089 0.783287 0)
(1.11444 0.725011 -2.52807e-19)
(1.14753 0.626717 0)
(1.19734 0.40939 5.79398e-20)
(0.957817 -0.0086792 0)
(0.962548 -0.0100188 0)
(0.901814 -0.00798928 0)
(0.984213 -0.00913922 0)
(0.974729 -0.00932084 0)
(0.937156 -0.0063753 0)
(1.00019 0.00234123 0)
(1.0009 0.00141828 0)
(0.999909 0.000856119 0)
(0.0355336 2.07132 4.27804e-19)
(0.11837 1.76926 0)
(0.018184 2.1847 6.57588e-19)
(0.045875 1.88042 -5.4781e-19)
(0.107206 1.15044 -2.59057e-19)
(0.0500606 1.02675 0)
(0.144346 0.986371 0)
(0.00876225 0.84613 0)
(0.0215791 0.593631 0)
(-0.000783366 2.24117 -7.85454e-22)
(0.0162171 2.0199 0)
(-0.00166466 2.2441 -2.60069e-20)
(0.00869845 2.02626 3.86029e-20)
(0.00558258 0.815467 0)
(0.00468249 0.789609 0)
(0.0163959 0.543284 0)
(-0.00563839 0.749645 0)
(0.007201 0.440161 0)
(0.93894 0.00988868 0)
(0.851101 -0.0145974 0)
(0.927965 0.000512845 0)
(0.842952 -0.0128719 0)
(0.809351 0.00120349 0)
(0.899282 0.0208402 0)
(0.875295 0.0244482 0)
(0.783187 0.0012337 0)
(0.00575455 3.06498 -8.36255e-21)
(0.0167119 3.05761 0)
(0.0146995 2.969 0)
(0.00874068 2.87621 0)
(0.917126 3.94508 0)
(1.22959 3.27908 9.21276e-19)
(0.0685915 3.06745 0)
(-0.0294796 2.90086 0)
(-0.0118115 1.40967 0)
(-0.0339883 1.70252 0)
(-0.0207202 1.54093 0)
(-0.0315165 2.54451 -9.37202e-21)
(-0.0163433 2.23953 0)
(-0.0220547 2.38527 0)
(-0.000710955 1.95468 8.57976e-22)
(-0.00363729 2.24096 -1.11972e-20)
(-0.00553009 2.20533 -7.29783e-21)
(-0.00861407 1.93949 0)
(0.387177 0.120963 5.42827e-19)
(0.367075 0.0233333 -5.32677e-19)
(0.258095 1.58442 0)
(0.278406 0.759789 -3.16444e-19)
(0.176739 1.67184 -1.04828e-18)
(0.225485 1.22176 1.05054e-18)
(0.901904 0.00620066 0)
(0.96732 0.011219 0)
(0.974507 0.0108405 0)
(0.923248 0.00632558 0)
(-0.00920357 0.744698 0)
(-0.010115 0.742354 0)
(0.00872698 0.422766 0)
(0.0823159 0.0660439 5.8853e-19)
(0.0789908 0.0378738 -6.90015e-19)
(0.043258 0.0453167 0)
(1.10241 0.0872811 2.72774e-20)
(1.08437 0.0400779 0)
(1.01544 0.0405033 0)
(0.908831 -0.00494937 0)
(0.439806 0.103638 0)
(0.499029 0.087134 -2.47728e-18)
(0.41065 0.0170606 9.26859e-19)
(0.00855975 2.98103 7.0306e-19)
(-0.0322299 2.8653 4.77212e-20)
(0.00356476 3.05031 -1.77216e-20)
(0.0202497 3.04329 6.30042e-19)
(-0.0149984 2.9966 2.94155e-20)
(-0.0129175 2.94947 -1.18394e-22)
(-0.0172503 3.01192 -5.45054e-19)
(0.0148744 3.02375 3.94747e-19)
(0.00740044 3.03685 -6.24393e-19)
(0.934267 -0.00113744 0)
(0.939653 -0.00314275 0)
(0.846273 -0.00945789 0)
(0.956362 0.0121012 0)
(0.942364 0.0135431 0)
(0.881287 0.00564415 0)
(0.916324 0.0173644 0)
(0.925418 0.0153935 0)
(0.837091 0.00296951 0)
(0.713163 1.39746 3.49554e-20)
(0.746574 1.50601 0)
(0.178891 0.310296 7.07606e-20)
(0.229961 0.667714 5.68716e-19)
(0.261449 0.716705 -3.32426e-19)
(0.260659 0.514282 6.62126e-19)
(0.347488 0.81286 1.60027e-18)
(0.141443 0.230844 3.77583e-19)
(0.250131 0.141405 7.30764e-19)
(0.212079 0.131519 1.89241e-19)
(0.213088 0.0806584 3.5824e-19)
(1.18624 0.467603 6.59061e-20)
(1.20061 0.258971 6.07052e-20)
(0.0103945 2.23352 2.52787e-19)
(0.0402847 1.94882 0)
(0.971988 0.0296858 0)
(0.944171 0.0140841 0)
(0.870261 -0.0177115 0)
(0.0112905 3.07407 0)
(0.0196065 2.94415 1.15081e-18)
(0.0163875 2.95624 0)
(0.00648439 2.85055 -1.14137e-18)
(0.00644067 3.09151 2.78915e-19)
(0.00707974 3.0826 0)
(0.779266 1.80684 -1.56479e-19)
(1.23742 2.481 3.95677e-19)
(0.761192 1.946 -1.21792e-18)
(0.0192992 2.97983 -6.03794e-19)
(0.0347617 2.99784 0)
(-0.034981 2.87531 0)
(-0.00380588 2.22403 -1.32344e-20)
(-0.00308993 2.24513 1.8597e-20)
(0.00200585 1.98904 -7.32978e-21)
(0.278282 1.39435 1.02643e-18)
(0.240478 0.556106 -7.03645e-19)
(0.0636865 1.9963 7.61732e-19)
(0.134884 1.88255 -9.09795e-19)
(0.179944 1.51264 9.53674e-20)
(0.00454485 3.11789 -1.61648e-18)
(0.015068 3.11826 1.73826e-18)
(-0.00934815 2.98057 7.74199e-19)
(-0.00372336 2.97706 -7.31073e-19)
(-0.0213175 2.88092 -7.88503e-19)
(0.00855129 3.0987 -2.07021e-18)
(0.00178031 3.10683 2.03751e-18)
(0.283417 0.694954 0)
(0.248958 0.683156 -1.18501e-18)
(0.0955139 0.223848 5.26025e-19)
(0.358651 0.940642 1.11757e-18)
(0.196527 0.277419 -1.72317e-18)
(1.19058 0.176568 6.31976e-20)
(1.2009 0.314021 0)
(1.17896 0.123795 -6.05891e-21)
(0.00168807 2.25254 -1.44529e-21)
(0.00508096 2.24367 0)
(0.0247 1.98486 0)
(0.339637 1.30335 -3.68339e-19)
(0.375457 1.15254 -8.01916e-19)
(0.211276 0.380197 1.43075e-18)
(1.00588 -0.0108219 0)
(1.00767 -0.00762975 5.09631e-19)
(-0.0325821 1.33575 0)
(-0.0447326 1.33831 0)
(1.00221 0.00351743 1.81296e-21)
(1.00366 0.00947418 1.04063e-18)
(-0.0200778 2.52955 1.18788e-20)
(-0.0249037 2.57212 0)
(0.0334939 3.17606 3.95923e-19)
(0.387484 3.47989 0)
(1.17947 0.669069 -5.66025e-20)
(1.01282 0.0131539 -2.1318e-21)
(1.02137 -0.010259 0)
(1.0017 0.000138172 8.11261e-23)
(0.113168 1.37363 0)
(0.143224 2.56286 0)
(0.0359121 1.3157 0)
(0.000692916 2.61502 2.60385e-20)
(-0.0205213 2.57251 -2.68737e-22)
(0.999618 0.0311429 2.5193e-21)
(1.06335 0.00494643 0)
(1.09803 0.025639 0)
(-0.0322277 1.74633 0)
(-0.0184474 2.57367 0)
(-0.00555302 1.32613 0)
(0.311916 1.48687 -1.66328e-19)
(1.01131 -0.00960607 0)
(1.0094 -0.0149133 0)
(1.00237 0.000764311 6.51354e-19)
(1.00547 -0.00479274 -7.65514e-19)
(1.00118 -0.000964367 0)
(-0.0196219 1.47707 0)
(-0.00750197 1.39111 0)
(-0.0116463 1.43517 0)
(-0.0106733 1.31261 0)
(-0.0252995 1.30063 0)
(-0.0132888 1.28522 0)
(1.03512 -0.00599636 0)
(1.01979 0.0161586 -9.18768e-22)
(0.825604 1.27912 2.61305e-19)
(1.00223 0.000330767 -6.48729e-19)
(1.00406 0.00526745 7.59613e-19)
(1.00118 0.00208041 0)
(1.01269 0.0103971 6.45832e-19)
(1.00797 0.0083221 -7.82485e-19)
(1.00855 0.0146842 0)
(-0.0239454 2.60099 0)
(-0.0264401 2.58001 -2.23173e-20)
(-0.0234502 2.59437 1.57497e-20)
(1.24003 0.270474 5.83887e-19)
(1.16408 0.0880038 0)
(0.0390834 3.07877 -8.89164e-19)
(0.0647321 2.85757 -6.46778e-20)
(0.136643 3.19203 1.35578e-18)
(0.132404 3.21897 -1.89336e-19)
(0.132021 3.22885 0)
(0.0186991 3.137 2.29468e-19)
(0.0730834 3.16009 8.76852e-19)
(0.0663721 3.18447 -4.3271e-19)
(0.0211747 3.13019 0)
(0.549402 0.280069 0)
(0.481895 0.299145 0)
(1.15216 0.705553 1.2776e-19)
(1.14487 0.827321 -1.10372e-19)
(1.20741 0.591927 0)
(1.23445 0.525192 0)
(1.016 0.0134115 -1.20376e-18)
(1.01492 0.0142942 1.51134e-18)
(1.02543 -0.00978028 0)
(1.02349 -0.0118298 0)
(1.00643 0.00266922 0)
(1.01042 0.00377775 0)
(1.00458 0.00188163 0)
(1.00977 0.00627965 0)
(1.0078 0.00597167 0)
(1.0045 0.00474164 0)
(0.101826 1.37233 0)
(0.0989422 1.33387 0)
(0.132459 1.40902 0)
(0.150176 1.413 0)
(0.145356 2.58801 0)
(0.184719 2.65876 -4.23087e-19)
(0.101735 2.64294 0)
(0.0854337 2.64609 1.98275e-19)
(0.0392926 2.66944 -1.46885e-19)
(0.0234194 1.33366 0)
(0.0334913 1.24843 0)
(0.0254847 1.3443 0)
(0.0469854 1.26951 0)
(0.00498524 1.98048 5.95507e-21)
(-0.0194474 2.60023 -2.36612e-20)
(-0.00725442 2.65627 1.01037e-20)
(-0.0171344 2.6763 0)
(-0.022513 2.60594 5.77996e-21)
(-0.0225554 2.60099 1.98212e-20)
(0.0137064 1.97841 -8.71238e-22)
(-0.00698261 2.3863 3.17417e-20)
(-0.0123414 2.40967 -1.14596e-20)
(1.01185 0.0400204 1.21839e-18)
(1.00545 0.0212083 -1.51695e-18)
(1.00402 0.0472689 -1.24134e-18)
(0.978731 0.0378703 1.56213e-18)
(1.06455 0.00873846 0)
(1.04964 -0.00810269 0)
(1.09515 0.0356661 0)
(1.07475 0.0133264 0)
(1.07256 0.00110284 0)
(1.14108 0.0848211 0)
(1.11265 0.0455128 0)
(1.1169 0.0331644 0)
(-0.0269486 2.42415 1.84022e-21)
(-0.0163812 2.01456 0)
(-0.0192884 2.21309 0)
(-0.02042 2.59418 -1.37217e-20)
(-0.0174404 2.60437 2.97138e-22)
(0.00191153 1.58998 -4.4224e-20)
(-0.0102556 1.51749 4.50957e-20)
(-0.0186229 1.40623 0)
(-0.0229599 1.41354 0)
(-0.0307529 1.40774 0)
(-0.00192906 1.32812 0)
(0.015858 1.24278 0)
(0.388366 1.50436 2.7007e-19)
(0.431783 1.50496 1.44209e-19)
(0.596581 2.4385 -2.40992e-19)
(0.396884 2.53613 7.0879e-19)
(0.348179 2.04587 7.27827e-20)
(1.0211 -0.00808464 0)
(1.01552 -0.00972774 0)
(1.01493 -0.0154951 0)
(1.00741 -0.00104342 0)
(1.00493 -0.000897426 0)
(1.00779 -0.00466701 0)
(1.00928 -0.00357707 0)
(1.01424 -0.00433606 0)
(1.0205 0.0166639 1.17944e-18)
(1.01751 0.0158425 -1.51136e-18)
(1.0208 0.0189622 -1.18865e-18)
(1.01822 0.0175236 1.48995e-18)
(0.788848 1.32939 0)
(0.723828 1.38101 2.45792e-19)
(0.90207 1.22943 9.81863e-20)
(0.947829 1.17522 -1.30672e-19)
(1.15119 2.59295 2.90396e-19)
(0.763626 0.123624 6.03489e-19)
(1.16463 0.110946 0)
(1.2145 0.196986 -4.70088e-19)
(1.20212 0.157146 -2.00511e-20)
(1.00571 0.159267 0)
(0.125357 2.95992 5.1716e-19)
(0.101224 2.86565 -1.12501e-18)
(0.00719341 2.37828 7.48987e-19)
(0.110013 -0.1833 -3.0172e-19)
(0.332668 3.41051 -2.17898e-19)
(0.18906 3.30663 0)
(0.232888 3.34583 2.83784e-19)
(0.235822 3.03112 -1.73709e-18)
(0.327932 3.18782 0)
(0.00528569 3.12113 4.49643e-20)
(0.0159795 3.1296 -5.296e-19)
(0.0138263 3.1257 7.79456e-19)
(0.0336996 3.13991 0)
(0.0320692 3.14998 0)
(1.20527 2.58963 0)
(0.550838 0.795942 -5.2806e-19)
(1.07145 1.00005 -1.02677e-20)
(1.00741 1.08404 0)
(0.861015 0.978616 -1.10103e-19)
(1.09874 0.900738 2.78681e-20)
(0.257542 0.304242 -8.04169e-19)
(0.636988 0.32584 -1.54808e-20)
(0.521459 0.219244 4.07167e-19)
(0.500586 0.336616 2.90092e-20)
(0.381357 0.259792 -1.16111e-18)
(0.587963 0.326125 0)
(0.705427 0.433373 6.63616e-19)
(0.702657 0.433681 0)
(0.544264 0.341388 0)
(0.453847 0.23738 0)
(0.833599 0.63329 4.07896e-19)
(1.24148 0.292969 -4.90924e-19)
(1.24232 0.43303 0)
(1.25034 0.372981 0)
(0.669525 0.195829 6.24075e-19)
(0.877565 0.564182 -3.71879e-19)
(0.776875 0.542572 6.64163e-19)
(0.963308 0.453632 -7.35935e-19)
(1.01922 0.01507 8.10628e-19)
(1.01752 0.0144151 -8.14242e-19)
(1.01575 0.0154779 0)
(1.03659 -0.00553498 0)
(1.02998 -0.00832704 -7.62516e-19)
(1.02803 -0.0119251 7.5494e-19)
(1.02491 0.0107087 0)
(1.0234 0.0144623 0)
(1.01142 0.00420729 0)
(1.01417 0.00922759 0)
(1.01518 0.00423922 0)
(1.01429 0.00294743 0)
(0.0727904 1.35568 0)
(0.0802419 1.30006 0)
(0.149336 1.39103 5.47538e-21)
(0.282667 1.48531 8.83465e-20)
(0.177576 1.45593 1.85645e-19)
(0.209776 1.46116 -3.0274e-19)
(0.177961 1.41681 0)
(0.136587 1.59968 -7.38752e-20)
(0.120291 1.57975 0)
(0.343883 1.99425 -1.05841e-19)
(0.340497 2.33168 6.15575e-19)
(0.196553 1.46762 6.4395e-20)
(0.269998 1.40255 2.20539e-20)
(0.20328 1.39561 -1.78087e-20)
(0.280001 1.34519 -1.08203e-19)
(0.243217 1.57808 0)
(0.269803 1.61448 1.16074e-19)
(0.0313481 2.25278 -2.93758e-20)
(0.0442503 2.65838 0)
(0.0669767 2.38881 1.37602e-19)
(0.0637637 2.40936 0)
(0.0700076 2.65967 -2.19729e-19)
(0.0497002 2.68868 0)
(0.0308095 1.45253 3.65567e-20)
(0.03705 1.49877 0)
(0.0352499 1.41703 0)
(0.0309476 1.42364 -4.12542e-20)
(0.00149539 2.64241 -1.65043e-20)
(0.0303395 2.68781 1.64754e-19)
(0.011137 2.71323 1.15268e-21)
(0.00689418 1.84041 -9.44442e-21)
(-0.000327674 1.69475 -4.99692e-21)
(0.0199198 1.30976 0)
(0.0308724 1.22278 0)
(0.0462756 1.59732 -2.76996e-20)
(0.0361693 1.47846 -3.37297e-20)
(0.0398279 1.54093 4.21424e-20)
(0.0414049 1.62061 0)
(-0.0300378 2.26544 1.07793e-19)
(-0.0310192 2.54093 -4.48477e-20)
(-0.0168152 2.43932 5.36914e-21)
(-0.000784609 1.85568 1.14451e-20)
(-0.025534 2.4916 4.86404e-21)
(-0.0197191 2.43616 -8.15881e-21)
(1.01893 0.0223715 -8.08393e-19)
(1.01554 0.0287359 8.11541e-19)
(1.01287 0.0183806 0)
(1.00904 0.0715717 1.13759e-18)
(0.991614 0.0620789 -1.2696e-18)
(0.95086 0.0561354 1.41952e-18)
(1.01252 0.112089 -1.5139e-19)
(1.04304 -0.00550092 0)
(1.05151 -0.00105636 7.27176e-19)
(1.03935 -0.00966889 -7.28681e-19)
(1.07231 0.0433703 -4.32588e-20)
(1.06523 0.0244717 3.73011e-19)
(1.06316 0.0577358 0)
(1.05416 0.0511066 -1.34201e-19)
(1.03215 0.0424627 0)
(1.0266 0.038583 0)
(1.02791 0.0138746 0)
(1.02391 0.0166757 0)
(1.04026 0.0333549 2.76361e-19)
(1.03893 0.0272155 -6.10917e-19)
(1.05144 0.0349646 -2.9287e-19)
(1.04837 0.035064 -3.22581e-19)
(1.07176 0.0661195 6.29633e-19)
(1.0974 0.0539059 0)
(1.10696 0.0983763 0)
(-0.0257457 2.27003 6.04895e-20)
(-0.0260772 2.01996 1.71376e-21)
(-0.022051 2.02735 0)
(-0.0270785 2.43835 -6.01999e-20)
(-0.0230339 2.39499 -3.47356e-21)
(-0.0336261 2.46484 6.52619e-21)
(-0.0201891 2.61352 -1.74096e-20)
(-0.0231709 2.55504 5.11836e-22)
(-0.0217399 2.5071 -5.18707e-21)
(-0.0155292 2.60733 1.3482e-20)
(-0.0204283 2.60939 -1.48772e-20)
(-0.00666456 1.51894 -9.87496e-22)
(0.00233809 1.63652 -4.29209e-20)
(0.373491 1.45301 -1.13422e-19)
(0.373452 1.3855 4.27981e-20)
(0.664597 1.43077 -2.37713e-19)
(0.530744 1.49767 -1.41539e-19)
(0.588635 1.46382 0)
(0.592318 2.41567 2.07568e-19)
(0.660934 2.4118 3.38168e-19)
(0.410458 2.50488 8.82178e-20)
(0.401758 2.5288 -6.1065e-19)
(0.509231 2.46921 6.17053e-19)
(0.552417 2.45232 0)
(0.48681 2.51036 -5.5994e-19)
(0.247875 2.58239 1.14314e-18)
(0.354127 2.55429 -7.67675e-20)
(0.28326 2.6441 -1.58684e-18)
(0.947699 2.3685 7.32161e-19)
(0.837417 2.37421 0)
(1.01109 0.000562453 2.64255e-20)
(1.01538 -0.00533361 -2.14336e-20)
(1.0177 -0.00342977 -3.91472e-19)
(1.01507 -0.000792764 3.93615e-19)
(1.01249 0.00131133 0)
(0.652062 1.2942 0)
(0.676249 1.18801 0)
(0.790774 1.10766 0)
(0.66951 1.15114 0)
(1.18149 2.60639 6.03433e-20)
(1.06918 2.35334 0)
(0.83174 2.15512 3.95233e-21)
(0.821045 2.42285 0)
(0.920856 2.51703 -4.27131e-19)
(0.955806 2.47287 2.84031e-19)
(0.795627 0.184131 0)
(0.736054 0.156979 1.63638e-19)
(0.905279 0.153334 9.54096e-19)
(0.82125 0.156038 -3.56672e-19)
(0.774373 0.0903384 -1.1033e-18)
(1.08315 0.244271 -8.97905e-19)
(0.999615 0.308663 -1.80315e-20)
(0.926568 0.31283 8.63674e-19)
(1.00673 0.237866 7.26161e-19)
(0.947137 0.201959 -1.26215e-18)
(0.908027 0.206368 1.57885e-19)
(0.946685 0.273691 -3.34951e-19)
(0.924322 0.232564 0)
(0.995434 0.198494 6.22373e-19)
(1.04724 0.196956 0)
(1.04506 0.225666 0)
(1.10825 0.122927 2.91861e-19)
(1.07241 0.183193 -1.52082e-20)
(1.07658 0.244221 -1.58766e-19)
(1.10198 0.209881 0)
(1.02092 0.0469112 6.23397e-19)
(1.0403 0.0600928 7.77858e-19)
(1.03368 0.0453565 -6.1952e-19)
(1.04246 0.0680598 -5.21893e-19)
(1.017 0.076412 -8.01495e-19)
(0.983597 0.161577 0)
(0.98883 0.106672 0)
(0.965932 0.0771446 -5.05031e-19)
(0.903731 0.0980995 2.01008e-19)
(1.04038 0.109097 7.20895e-19)
(1.06962 0.126309 -8.41764e-19)
(1.07687 0.159035 7.51625e-19)
(1.03204 0.153788 0)
(1.07513 0.11363 0)
(1.0541 0.0943062 -3.45005e-19)
(1.04466 0.100052 -5.88217e-19)
(0.578182 1.04813 1.44814e-19)
(0.600697 1.36987 -4.66583e-20)
(1.15167 2.72281 -2.34801e-19)
(1.21686 3.06527 3.83688e-21)
(1.24283 2.70512 -1.33844e-19)
(1.27056 2.68781 -2.59282e-20)
(1.19699 2.32733 -1.14213e-20)
(1.20463 2.96891 -1.00352e-19)
(1.22519 2.9345 2.44978e-19)
(1.20661 3.21743 -1.39358e-19)
(1.36545 2.94727 1.92474e-19)
(1.35304 2.86497 0)
(0.573678 0.806361 -5.10802e-20)
(0.0945512 1.21235 5.62724e-19)
(0.566538 0.312845 5.30699e-19)
(0.400162 0.0571947 5.67498e-19)
(0.436853 0.307545 6.58937e-19)
(0.539807 0.426406 -1.07225e-18)
(0.543871 0.420112 8.77388e-19)
(0.438291 0.279555 -3.3098e-19)
(0.278904 0.205567 7.43007e-19)
(0.699235 0.271776 -3.60956e-19)
(0.653595 0.293734 0)
(0.583367 0.208613 6.20078e-21)
(0.742108 0.517081 3.594e-19)
(0.725416 0.488631 -1.30623e-18)
(0.620286 0.450378 8.74547e-21)
(0.609443 0.440051 0)
(0.699961 0.720369 3.97257e-19)
(0.862039 0.784834 3.93661e-19)
(0.786966 0.868217 -4.60766e-19)
(0.907688 0.822074 -1.5359e-19)
(0.939025 0.867364 -3.70222e-20)
(0.946037 0.867096 3.79128e-20)
(0.872762 0.667578 -6.7594e-19)
(0.952522 0.719705 1.42598e-19)
(1.01305 0.734373 0)
(1.00359 0.710557 -1.92648e-19)
(1.02963 0.349675 2.12551e-19)
(1.15143 0.309804 2.89071e-19)
(1.0712 0.282058 3.66962e-19)
(1.02042 0.382706 -4.3235e-19)
(1.06982 0.445106 0)
(1.12629 0.424957 0)
(0.920742 0.386167 1.28842e-21)
(0.835174 0.320154 0)
(0.88597 0.319631 4.07726e-19)
(0.909889 0.320984 -8.40476e-21)
(0.958494 0.457466 2.04974e-18)
(0.920429 0.513655 5.25917e-19)
(0.924079 0.480092 -5.61465e-19)
(0.837372 0.468874 6.03393e-19)
(0.820813 0.46388 3.61871e-19)
(0.789048 0.44658 -3.55149e-19)
(1.02744 -0.000134955 6.52232e-19)
(1.02006 0.000158514 0)
(1.01858 0.0010824 4.25285e-19)
(1.02181 -0.00144085 -9.63415e-19)
(1.0224 0.00463012 4.68027e-19)
(1.02033 0.0116839 -9.80099e-19)
(1.02122 0.0110827 0)
(1.02043 0.0113268 -2.04273e-19)
(1.01594 0.00794192 5.1245e-19)
(1.01658 0.0107579 -2.55761e-19)
(1.01729 0.010117 1.8829e-19)
(0.0365878 1.3319 0)
(0.0436649 1.38817 0)
(0.0531573 1.33212 0)
(0.0605978 1.27707 0)
(0.0762723 1.40541 -4.40346e-20)
(0.0866457 1.37109 2.0156e-20)
(0.115018 1.54975 -1.60921e-20)
(0.108663 1.39419 -3.46301e-21)
(0.0415953 1.48352 1.86944e-20)
(0.0452469 1.47724 -1.43795e-20)
(0.0692239 1.39299 -1.12162e-20)
(0.0617919 1.39369 4.39478e-20)
(0.056297 1.3708 6.5775e-21)
(0.0466921 1.39464 3.72394e-21)
(0.107663 2.35595 -1.52048e-19)
(0.0963743 2.40509 0)
(0.169431 2.03012 1.09876e-19)
(0.115031 1.70218 4.10753e-20)
(0.234844 2.02824 -9.0927e-20)
(0.198731 2.4179 0)
(0.261537 2.36779 -6.10639e-19)
(0.301742 2.36547 4.31221e-19)
(0.228538 1.98766 -2.5337e-19)
(0.155104 2.14599 1.71472e-19)
(0.141356 2.25176 0)
(0.0193929 1.87618 6.60478e-21)
(0.00170149 2.38092 -3.04483e-20)
(0.0070271 2.13914 0)
(0.0121813 2.44524 -1.36794e-20)
(0.0299734 2.28775 8.46744e-21)
(0.0192384 1.43163 -8.08871e-21)
(0.0179586 1.41392 1.37612e-19)
(0.0161323 1.42279 -4.5453e-20)
(0.024159 1.42865 -3.82725e-20)
(0.0288943 1.45645 0)
(0.0116957 1.40707 0)
(0.0054145 1.31015 -6.30095e-20)
(0.00813928 1.40125 1.82902e-20)
(0.0139757 1.39852 0)
(0.0138501 1.2998 -4.6198e-20)
(0.0272185 1.21375 9.46706e-20)
(1.04086 0.0121556 0)
(1.04711 0.0084399 -6.82454e-20)
(1.03893 0.0227203 -4.92247e-19)
(1.0486 0.0213986 0)
(1.05246 0.0211878 0)
(1.03656 0.0124362 -6.81725e-21)
(1.03124 0.0122815 7.91115e-19)
(1.03178 0.0173218 9.59495e-19)
(1.02557 0.0212748 0)
(1.02251 0.0218801 0)
(1.03541 0.0263286 4.91078e-19)
(1.02589 0.0280997 0)
(1.02405 0.0277094 0)
(-0.017354 2.02293 0)
(-0.000652967 1.66498 -3.99782e-21)
(-0.00475704 1.76776 -3.22344e-20)
(-0.000802342 1.40849 0)
(-0.00476856 1.57173 -2.43868e-20)
(-0.0108916 1.48554 1.50908e-20)
(-0.00873552 1.42635 0)
(0.386555 1.63092 0)
(0.376474 1.31095 -8.3136e-20)
(0.299846 1.33919 0)
(0.428191 1.30924 1.86352e-20)
(0.479345 1.47537 0)
(0.459633 1.41927 2.06859e-20)
(1.03566 2.66867 -1.54826e-20)
(0.967852 2.39682 -9.2e-19)
(0.921024 2.18595 1.02949e-18)
(0.851538 2.366 2.43338e-19)
(0.846994 2.47772 0)
(0.916745 2.47383 0)
(0.931011 2.36192 0)
(0.909983 2.35167 -9.5025e-19)
(0.684814 2.44036 -4.0038e-19)
(0.798403 2.43001 -9.87032e-20)
(0.807891 2.40425 7.49417e-20)
(0.694582 2.38467 0)
(0.799936 2.37997 0)
(0.757922 2.39359 -3.70046e-19)
(0.765963 2.4671 0)
(0.638059 1.09527 0)
(0.479257 0.891932 -5.28297e-19)
(0.575478 0.942367 -3.33414e-20)
(0.517884 1.02652 0)
(0.51835 0.966552 7.89746e-19)
(0.80728 0.890193 -1.30418e-19)
(0.815039 1.02505 0)
(0.790671 0.992114 1.86181e-19)
(0.675625 1.03591 0)
(0.676294 0.938688 0)
(1.16136 2.74586 -2.34217e-19)
(1.13872 2.80945 -1.01958e-19)
(0.926418 2.3219 1.09108e-19)
(0.89445 2.30172 -8.54492e-20)
(1.12725 2.71874 0)
(1.08147 2.68803 1.02772e-19)
(1.08627 2.47131 -3.15758e-19)
(0.980699 2.22485 -2.99227e-20)
(0.489739 1.32183 0)
(0.506267 1.05539 -1.276e-19)
(0.580433 1.16884 0)
(0.848586 0.251591 0)
(0.755948 0.200649 0)
(0.661764 0.154634 0)
(0.839508 0.252537 -6.34253e-19)
(0.72591 0.245705 3.7582e-19)
(0.922099 0.0913549 -4.14182e-19)
(0.924366 0.13335 0)
(0.912625 0.142329 1.78977e-19)
(0.848681 0.118137 7.1555e-19)
(0.812414 0.0790994 -4.48354e-19)
(1.15098 3.3419 -7.09683e-19)
(1.20067 3.2617 0)
(1.14832 3.37134 -1.4795e-18)
(0.637222 3.53353 1.25345e-18)
(0.856842 3.10386 6.55949e-20)
(0.525356 0.780789 6.11463e-19)
(0.420465 0.778334 0)
(0.292963 0.33389 -1.47701e-19)
(0.485377 0.650596 8.56733e-19)
(0.576788 0.323874 -1.89288e-19)
(0.516388 0.4628 2.27303e-19)
(0.67378 0.519151 4.8355e-19)
(0.722057 0.561053 0)
(0.672047 0.571421 0)
(0.639671 0.52884 0)
(1.01267 0.620931 8.80209e-20)
(0.926001 0.562857 -5.12232e-19)
(0.952007 0.593948 3.8569e-19)
(0.980563 0.533813 -3.97432e-19)
(1.08998 0.50006 0)
(1.09898 0.591896 -9.65152e-20)
(0.856058 0.419392 -8.33714e-19)
(0.854029 0.407413 -1.03334e-18)
(0.783268 0.401143 6.32468e-19)
(0.792532 0.389377 -6.43053e-19)
(0.841841 0.345186 -5.22197e-19)
(0.787089 0.340937 6.38243e-19)
(1.02679 0.00620269 -4.98616e-19)
(1.02648 0.00643871 1.01522e-18)
(1.02957 0.000343318 6.3209e-19)
(1.03376 0.00123782 -7.61333e-19)
(1.03397 0.00938995 0)
(1.03024 0.0100743 -1.2386e-18)
(0.0645257 1.63826 1.91772e-20)
(0.0531105 1.5913 0)
(0.0917104 1.68734 1.30087e-19)
(0.0989577 1.66856 -1.15359e-19)
(0.0928202 1.55095 2.87901e-20)
(0.0921036 1.5528 0)
(0.0140223 1.69714 0)
(-0.00163145 1.51532 1.09176e-20)
(-5.2819e-05 1.46208 -9.81337e-21)
(-0.00683996 1.56824 5.55383e-21)
(0.00315623 1.88733 1.60451e-20)
(-0.00880032 1.94083 -3.93458e-21)
(0.496765 1.35288 -2.71336e-19)
(0.494136 1.35245 2.97525e-19)
(0.456024 1.30535 -3.69956e-20)
(0.437583 1.27964 7.69944e-21)
(0.643949 1.31295 0)
(0.558311 1.40403 1.0061e-19)
(0.574889 1.41079 -9.79581e-20)
(0.470023 1.29973 3.61937e-20)
(0.525442 1.24472 0)
(0.576403 1.2061 0)
(0.652144 2.40026 5.88102e-19)
(0.668068 2.44215 1.26492e-18)
(0.71228 2.45289 -8.71745e-19)
(0.608407 2.42678 -2.02391e-19)
(0.559016 2.51646 2.85508e-19)
(0.508458 2.49166 -7.61234e-19)
(0.97703 2.36855 -5.76406e-19)
(1.01022 2.3804 0)
(0.924184 2.16394 -6.60102e-19)
(1.05278 2.66699 0)
(1.05516 2.65359 0)
(0.590758 2.24903 -1.41668e-19)
(1.03256 3.14867 1.16123e-19)
(0.903884 3.01963 -1.75099e-20)
(0.254176 0.817328 0)
(0.27614 0.655123 -3.19422e-19)
(0.45126 0.617518 -3.23506e-19)
(0.371231 1.99237 0)
(0.457695 2.7757 -4.56656e-20)
(0.409625 2.53794 0)
(0.726562 0.670766 -8.38267e-19)
(0.809615 0.693903 1.11633e-18)
(0.829143 0.634285 -1.10261e-18)
(0.702547 0.63668 -1.06865e-19)
(0.755936 0.596924 -4.36929e-19)
(0.997405 2.74599 -8.83258e-20)
(1.04014 2.81019 -1.75518e-19)
(0.62603 2.10726 7.28933e-19)
(0.57747 1.67689 -5.1828e-19)
(0.690221 1.88071 -4.19634e-19)
(0.984085 2.43067 -1.1363e-19)
(0.991934 2.42404 3.06195e-19)
(0.6424 1.81151 2.91194e-20)
(0.435818 1.29981 1.48641e-19)
)
;

boundaryField
{
    wall-4
    {
        type            noSlip;
    }
    velocity-inlet-5
    {
        type            fixedValue;
        value           uniform (1 0 0);
    }
    velocity-inlet-6
    {
        type            fixedValue;
        value           uniform (0 3 0);
    }
    pressure-outlet-7
    {
        type            zeroGradient;
    }
    wall-8
    {
        type            noSlip;
    }
    frontAndBackPlanes
    {
        type            empty;
    }
}


// ************************************************************************* //
