/*--------------------------------*- C++ -*----------------------------------*\
| =========                 |                                                 |
| \\      /  F ield         | OpenFOAM: The Open Source CFD Toolbox           |
|  \\    /   O peration     | Version:  2206                                  |
|   \\  /    A nd           | Website:  www.openfoam.com                      |
|    \\/     M anipulation  |                                                 |
\*---------------------------------------------------------------------------*/
FoamFile
{
    version     2.0;
    format      ascii;
    arch        "LSB;label=32;scalar=64";
    class       volScalarField;
    location    "80";
    object      p;
}
// * * * * * * * * * * * * * * * * * * * * * * * * * * * * * * * * * * * * * //

dimensions      [0 2 -2 0 0 0 0];

internalField   nonuniform List<scalar> 
918
(
0.557097
1.17258
0.00121118
0.556564
-0.012624
1.13959
-0.513907
0.650544
0.537307
-0.10752
-0.0583714
0.539408
1.00019
0.766396
-1.12489
-0.0131572
0.651445
-0.383099
0.536435
-0.0675479
0.67609
0.543838
0.546861
0.537438
0.59677
0.739374
0.881338
0.0286502
0.0114325
0.00672062
-0.0121441
-0.0389721
-0.0334401
1.02324
1.07432
1.09702
0.505016
0.333701
-0.379674
-0.453443
-0.439365
-0.540263
0.652173
0.653887
-0.217765
0.651794
0.650178
0.524308
0.536677
0.537591
0.538599
0.53759
0.538967
0.401857
-0.108562
-0.139896
-0.0885644
-0.0814308
0.0485695
-0.0576914
-0.0584144
-0.0573627
-0.0587057
0.454067
0.533892
0.530529
0.543654
0.552907
1.11213
1.08406
1.1102
1.02383
1.04035
0.978176
0.950881
0.786752
0.808707
0.752595
0.739967
-1.55417
-2.50092
-0.537433
-0.28796
-0.0106538
-0.0114741
-0.00616603
0.648813
0.649904
0.651312
0.653122
1.07791
-0.380358
-0.482293
0.536579
0.53539
0.543698
0.544401
0.540422
0.539511
-0.0593781
-0.0570567
-0.0556772
-0.0624701
-0.0599075
0.652021
0.657215
0.537964
0.534965
0.560502
0.581172
0.570885
0.276669
0.607675
0.623744
0.574293
0.734733
0.727009
0.736432
0.854813
0.818989
0.918419
0.941465
0.0183605
-0.000246151
-0.0174245
-0.0207124
-0.0198586
0.500842
0.493375
0.52123
0.508457
0.510969
0.250852
0.118057
0.418407
0.443049
-0.299433
-0.367538
-0.431666
-0.461846
-0.569294
0.613361
0.654246
0.651412
-0.22695
-0.155225
-0.289697
-0.0819616
-0.145262
0.514554
0.521582
0.516572
0.532148
0.526609
0.528575
0.540954
0.538022
0.539583
0.463953
0.587414
0.328101
0.292429
-0.244052
-0.155352
-0.243286
-0.0713304
-0.0686941
0.062842
0.0886719
0.0352218
0.0233558
-0.0644202
-0.0599983
-0.062232
-0.0579747
-0.0578896
0.446775
0.435491
0.466785
0.474364
0.520504
0.521923
0.526411
0.524394
0.901611
0.923901
0.931595
0.905403
-3.48555
-6.25855
0.0349331
0.170348
-0.00672993
-0.00955237
0.00198267
-0.00620203
-0.000163487
-0.00218781
-0.0119039
-0.0130858
-0.00758121
-0.00648698
0.643534
0.644251
1.00066
1.00839
0.975639
0.928723
0.524852
0.526892
0.532367
0.528262
-0.0575994
-0.0566801
-0.0566072
0.651024
0.652153
0.651888
0.237933
0.147651
0.327991
0.357328
0.636934
0.626103
0.635221
0.63372
0.670757
0.948838
0.967097
0.965304
0.973755
1.01782
1.03424
0.999588
0.480224
0.490242
0.48517
0.524061
0.521976
0.52281
0.519291
0.52027
0.518469
-0.0318915
-0.410479
0.490203
0.50647
0.492668
0.49437
0.693511
0.77219
0.65252
0.653096
0.653165
-0.0120039
-0.070562
0.24745
0.213088
0.385992
0.422603
0.401446
0.872845
0.833257
0.883426
0.85657
0.817973
0.843444
-0.362098
-1.85655
-0.978509
0.517634
0.333138
0.419763
0.00509592
-0.011586
-0.0070571
1.00111
1.07269
0.643191
0.818542
0.82074
0.706617
0.736094
0.792765
0.720565
0.753771
0.786637
0.766115
0.569075
0.503353
0.519905
0.84105
0.89655
0.116963
0.0544191
0.0107035
0.107824
0.165612
0.139399
1.03247
0.949897
1.01973
0.534728
0.535453
-0.0063851
-0.0195231
0.539717
0.539774
-0.0135719
-0.0030643
0.40294
-0.832282
0.0945033
0.52833
0.51816
0.535324
-0.0934469
0.353246
-0.0584221
0.0441598
-0.0130872
0.529474
0.465228
0.424214
-0.00149272
-0.0225621
-0.0580778
-0.213941
0.532397
0.530702
0.534792
0.535727
0.536412
-0.020529
-0.0163671
-0.011108
-0.0536743
-0.0446944
-0.0588249
0.499182
0.518432
-0.172456
0.534941
0.53708
0.536896
0.530182
0.535799
0.534058
-0.0129741
-0.0173714
-0.0199536
0.217542
0.350815
0.64018
0.724392
0.613795
0.390618
0.157079
0.544535
0.607025
0.51387
0.666126
0.64876
0.647494
0.159923
0.00919337
0.169348
0.111248
0.526197
0.524947
0.516411
0.513364
0.530192
0.528307
0.532868
0.5299
0.532851
0.534227
-0.0501142
-0.0762522
-0.0857605
-0.152502
0.307999
0.568918
0.252857
0.282121
0.138786
-0.0529216
-0.0544251
-0.0557148
-0.0618421
-0.00273384
-0.0289186
0.0386291
0.0386398
0.0100636
-0.0156093
-0.0131653
-0.0243008
-0.0180497
0.522713
0.522764
0.527609
0.53627
0.474923
0.478705
0.443419
0.464261
0.449431
0.38785
0.423494
0.398578
-0.00734764
0.000595098
-0.00397406
-0.0209692
-0.0177379
-0.0367731
-0.0337126
-0.0297221
-0.0252413
-0.0319486
-0.0520169
-0.0568109
-0.171814
-0.287863
0.987273
0.906983
0.138155
0.521537
0.528002
0.524757
0.529702
0.532831
0.533623
0.531324
0.527868
0.518719
0.52037
0.516904
0.517862
-0.103229
-0.245557
-0.0738467
-0.149505
0.146051
0.628139
0.362711
0.297565
0.293094
0.522871
0.910631
0.692132
0.656632
0.645773
-0.346146
0.0405058
-0.283369
0.329963
0.159333
0.639813
0.688337
0.709865
0.658366
0.6119
-0.0986488
0.555628
-0.0778162
-0.0248739
0.177594
0.0517267
0.645352
0.637573
0.644805
0.640146
0.650069
0.64043
0.62054
0.622271
0.638633
0.645754
0.479317
0.248173
0.198386
0.159928
0.643246
0.51283
0.561278
0.487835
0.521485
0.524054
0.522714
0.504019
0.511616
0.507131
0.513693
0.517288
0.525909
0.526399
0.521635
0.523767
-0.0565474
-0.0620556
-0.0268609
-0.136232
-0.129044
-0.191214
-0.0607323
0.0745253
0.0359153
0.236496
0.339845
0.0514321
-0.0577068
-0.0305811
0.0125221
0.179427
0.208092
0.0722513
0.159172
0.151541
0.132113
0.235188
0.238094
-0.0334655
-0.0346113
-0.0391404
-0.0427007
0.015301
0.086949
0.0962552
-0.0127329
-0.0174667
-0.0524516
-0.0553351
-0.024882
-0.0298605
-0.0254104
0.00246862
-0.0549343
-0.0230428
-0.00945442
-0.0114633
-0.0104731
-0.0159418
0.517705
0.519351
0.51967
0.528528
0.540627
0.555327
0.521083
0.497189
0.48795
0.490955
0.463878
0.474169
0.470056
0.483622
0.504944
0.513374
0.511734
0.514529
0.496952
0.498659
0.485152
0.488822
0.463957
0.444475
0.432414
-0.0448676
-0.00653023
-0.0148844
-0.0401329
-0.0105278
-0.0223876
-0.0152433
0.00450723
-0.0127886
-0.013369
-0.0238107
-0.0303262
-0.0296198
-0.0736232
0.0135399
-0.186083
-0.220869
-0.294589
0.889679
1.01394
0.808309
0.581135
0.602249
0.845676
0.929627
0.541093
0.733935
0.756856
0.587989
0.855165
0.526392
0.525984
0.523583
0.523061
0.524284
-0.00728936
0.0998826
0.0961274
0.16102
0.277797
0.388973
0.321359
0.195824
0.325373
0.327648
0.620697
0.632742
0.588747
0.61288
0.613672
0.4245
0.500198
0.551829
0.512952
0.565568
0.587421
0.540871
0.574479
0.523238
0.478346
0.474451
0.424166
0.443697
0.419186
0.402363
0.516882
0.493466
0.504479
0.49458
0.516658
0.543187
0.54021
0.562647
0.577661
0.497509
0.452595
0.461877
0.492104
0.453735
0.469246
0.484993
0.234466
0.137085
0.219902
-0.0642053
0.00453537
-0.00722318
-0.0563409
-0.00391179
0.279987
-0.409615
-0.386778
-1.01227
0.505968
0.949702
0.569623
0.549268
0.651069
0.640173
0.645991
0.662473
0.655787
0.632013
0.639905
0.645058
0.589325
0.610167
0.626635
0.622949
0.523274
0.378619
0.379033
0.325734
0.195985
0.236386
0.43167
0.356126
0.281417
0.2815
0.45566
0.341683
0.412432
0.444923
0.375885
0.330561
0.534118
0.600452
0.593646
0.567257
0.476219
0.487768
0.512644
0.54613
0.56935
0.603633
0.513121
0.519082
0.520313
0.517783
0.515041
0.518143
0.518406
0.521009
0.521607
0.52464
0.523718
-0.0536568
-0.0403449
-0.0505873
-0.0617738
-0.018755
-0.0214638
0.0218014
0.00934443
-0.0175746
-0.013062
-0.0339238
-0.0379579
-0.0351534
-0.0278966
0.101609
0.114109
0.0986169
0.0589608
0.250395
0.379789
0.454311
0.329139
0.223771
0.247672
0.266066
-0.0149989
0.00989217
-0.00276552
0.0371031
0.0295937
-0.0434376
-0.0476287
-0.0439047
-0.0352998
-0.0270257
-0.0455202
-0.052917
-0.0429971
-0.0477034
-0.0521706
-0.056927
0.499473
0.492964
0.494535
0.488513
0.487226
0.501406
0.505715
0.507693
0.513166
0.515467
0.505553
0.510931
0.51488
-0.0162747
-0.0391777
-0.042283
-0.0366084
-0.0366539
-0.0341662
-0.0360187
0.123863
0.0553538
0.058875
0.0114987
-0.121683
-0.0634625
0.492714
0.491395
0.480068
0.721643
0.570811
0.491969
0.589121
0.694799
0.276972
0.473052
0.308675
0.888142
0.785342
0.931477
0.542143
0.247212
0.413527
0.453984
0.268724
0.345716
0.323019
0.212386
0.242858
0.282662
0.380844
0.26704
0.244515
0.000755102
0.191716
0.302684
0.284701
0.408468
0.468662
0.268618
0.188086
0.14299
0.605224
0.624563
0.637982
0.610235
0.632721
0.581455
0.573464
0.588841
0.596968
0.590694
-0.740915
-0.446982
-1.3947
-0.719904
-0.262875
0.536578
0.511083
0.770247
0.643086
0.671132
0.655385
0.616904
0.587955
0.614102
0.634393
0.337136
0.447892
0.422772
0.429318
0.332177
0.261854
0.561046
0.558892
0.591712
0.615603
0.587526
0.618059
0.510923
0.510643
0.510108
0.506352
0.504614
0.506953
0.0570578
0.024382
0.0658217
0.0483092
0.0260341
0.0141319
-0.0178412
-0.0281802
-0.0344604
-0.032878
-0.0182005
-0.0146701
0.173427
0.110056
0.0304297
0.0590128
-0.00204915
-0.0705647
-0.0902036
0.0162882
0.112569
0.102758
0.40562
0.654428
0.474562
0.642004
0.485024
0.540729
0.468272
0.459284
0.483844
0.380519
0.460985
0.256595
-0.252738
-0.162163
0.796767
0.806514
0.581378
0.409098
0.175568
0.350298
0.538341
0.467265
0.502376
0.57115
0.557542
0.034318
0.0898314
0.383046
0.609685
0.243218
0.234067
0.227406
0.413796
0.330777
)
;

boundaryField
{
    wall-4
    {
        type            zeroGradient;
    }
    velocity-inlet-5
    {
        type            zeroGradient;
    }
    velocity-inlet-6
    {
        type            zeroGradient;
    }
    pressure-outlet-7
    {
        type            fixedValue;
        value           uniform 0;
    }
    wall-8
    {
        type            zeroGradient;
    }
    frontAndBackPlanes
    {
        type            empty;
    }
}


// ************************************************************************* //
