/*--------------------------------*- C++ -*----------------------------------*\
| =========                 |                                                 |
| \\      /  F ield         | OpenFOAM: The Open Source CFD Toolbox           |
|  \\    /   O peration     | Version:  2206                                  |
|   \\  /    A nd           | Website:  www.openfoam.com                      |
|    \\/     M anipulation  |                                                 |
\*---------------------------------------------------------------------------*/
FoamFile
{
    version     2.0;
    format      ascii;
    arch        "LSB;label=32;scalar=64";
    class       surfaceScalarField;
    location    "80";
    object      phi;
}
// * * * * * * * * * * * * * * * * * * * * * * * * * * * * * * * * * * * * * //

dimensions      [0 3 -1 0 0 0 0];

oriented        oriented;

internalField   nonuniform List<scalar> 
1300
(
3.75095
5.62643
-3.30797
3.75095
-7.75775
5.62643
-4.40154
4.40154
-0.327381
0.327381
1.87639
1.87457
-2.68979
2.68979
-2.02811
2.02811
-2.52185
2.52185
-5.2465
5.2465
-5.06928
5.06928
4.65152
-4.65152
-6.31333
6.31333
-0.937968
0.937968
-3.68763
3.68763
3.16958
-3.16958
-1.99447
1.99447
0.0861122
-0.0861122
-0.553468
4.30442
3.19748
3.19748
-2.00907
2.00907
-4.8701
4.8701
6.21811
-6.21811
5.29019
-5.29019
-1.98222
-2.47947
1.80618
-11.4752
-5.95157
-5.95157
-8.44037
8.44037
-2.81394
2.81249
2.94642
-2.94642
-1.76921
1.76921
-4.3656
-0.0359429
-4.3656
4.37014
0.0313999
4.37014
-0.441314
0.113933
-0.441314
4.01069
-4.01069
0.22085
0.106531
0.22085
3.0654
-3.0654
-1.87712
3.75351
1.87383
-1.8719
6.17632
-1.87905
3.75362
-6.01469
6.01469
-2.93469
0.2449
-2.93469
2.47883
0.210958
2.47883
-6.85015
6.85015
-2.08125
0.053141
-2.08125
1.98488
0.0432259
1.98488
2.88203
-2.88203
-2.6278
0.105956
-2.6278
2.39328
0.128565
2.39328
0.353507
5.27292
-5.97994
8.79242
-5.27292
0.0264275
5.20837
0.0381218
5.20837
-5.10604
0.0367572
-5.10604
5.01246
0.0568221
5.01246
4.73514
-0.0836178
4.73514
-4.77081
0.119288
-4.77081
-3.36885
-4.05
-6.46327
0.149942
-6.46327
-1.02867
0.0907061
-1.02867
0.824517
0.113452
0.824517
-3.68795
3.68795
-4.10914
0.421508
-4.10914
3.12396
0.0456219
3.12396
1.86849
1.88247
5.61944
-5.61944
2.44986
-1.95162
-0.0428512
-1.95162
-2.07697
-3.21322
2.07697
-0.082497
-0.13687
0.222982
-0.13687
3.15945
0.0380334
3.15945
2.23629
0.156986
-2.23629
0.227227
3.28002
-3.28002
1.33603
0.673039
1.33603
-5.56328
5.56328
4.9567
0.0557562
-4.9567
0.086599
6.15654
0.0615756
6.15654
-6.19953
-0.0185797
-6.19953
2.52649
-5.00596
-2.63953
6.13227
0.181056
-6.13227
0.180697
2.9184
0.0280255
2.9184
-2.91847
2.91847
-2.98485
0.0384215
-2.98485
-2.16764
0.398432
-2.16764
1.47121
0.297997
1.47121
-4.26887
-0.0967264
-4.26887
-4.25884
0.149707
4.25884
0.111301
1.13129
-1.13129
-0.573936
0.132623
-0.573936
-4.13483
-0.134049
4.13483
-0.124139
-3.89889
-0.111797
-3.89889
-3.02462
0.0397719
3.02462
0.0407783
3.11291
0.0465423
-3.11291
0.0475135
-1.87081
3.75328
-1.88014
3.75397
-5.63527
-0.37942
-5.63527
6.32552
-0.310834
6.32552
3.32847
0.359155
-3.32847
0.393783
2.30946
0.169369
2.30946
-6.81212
-0.0380252
-6.81212
6.83533
0.0148155
6.83533
2.17774
0.131723
-2.17774
0.0964915
1.95342
0.0314582
1.95342
2.90249
-0.0204532
2.90249
-2.87593
-0.00610079
-2.87593
2.79086
-2.79086
2.71558
0.0752828
-2.71558
0.0877778
-11.1331
11.1146
-0.0353295
-11.0978
5.17304
5.17304
4.16107
0.574066
4.16107
-4.98922
0.218418
-4.98922
2.69179
-5.33132
3.09381
-6.46267
4.65738
-16.1325
4.28909
-8.33909
6.70224
-6.70224
6.59152
0.110718
-6.59152
0.128253
-1.14756
0.118883
-1.14756
-3.08674
-0.601208
-3.08674
4.32916
-0.64121
4.32916
-3.02805
3.02805
-3.07741
0.0493604
3.07741
0.0465561
1.93828
0.0151398
-1.93828
-0.0133395
0.15893
0.0619202
-0.15893
0.0220596
3.49494
-0.214922
3.49494
-3.08074
-0.19928
-3.08074
-1.24627
0.0987173
1.24627
0.0897543
-5.81423
0.250951
-5.81423
-11.1907
0.092919
-11.1526
-6.10662
-6.10662
2.33376
11.1262
-2.89379
0.0178532
2.89379
0.0246121
2.97479
0.0532599
-2.97479
0.0563131
-2.85772
0.0668619
2.85772
0.060749
-2.54223
0.374584
-2.54223
-1.07126
1.07126
-1.2355
0.164244
1.2355
0.235714
1.4045
-0.273205
1.4045
0.705156
0.119361
-0.705156
0.131219
-3.79703
-0.101862
-3.79703
6.56085
-0.235324
6.56085
-2.96501
-0.115737
2.96501
-0.0625187
-0.0332739
11.1478
-5.13977
0.0337319
5.13977
-11.2094
11.2431
-3.21222
0.669992
3.21222
0.948852
5.28288
0.280404
-5.28288
0.293654
6.78593
0.0494019
-6.78593
0.083693
-2.59443
-0.492307
-2.59443
-5.05392
-0.581351
5.05392
-0.724759
-11.475
-0.204072
11.679
-11.4181
6.01831
0.138233
-6.01831
11.3814
-1.03056
-0.100736
1.03056
0.0406968
1.73245
-0.327954
1.73245
3.6932
-0.198252
-3.6932
-0.103831
-6.71515
-0.0969773
6.71515
-0.154301
-2.14954
-0.444888
2.14954
-0.417091
-4.26713
4.30516
1.90919
-2.38049
-2.62547
-5.59371
1.85184
1.90144
4.3017
-10.1256
-6.00692
-9.94492
7.26074
-6.96708
-9.23666
9.15304
7.90789
-8.01968
-5.78473
5.83128
6.48297
-6.4422
1.87883
1.87467
8.02759
-7.78269
-15.584
15.2046
7.57421
-7.52107
15.7363
-15.7743
-17.814
17.8634
-5.70837
5.81432
-6.74079
6.73468
-6.9771
6.91458
-2.83436
-3.6283
13.0848
-12.9348
8.6104
-8.65326
-8.62679
9.0483
3.38261
0.922558
3.42915
-1.88213
3.76097
-1.87149
3.78068
2.73995
-5.57431
2.59137
-5.21685
4.37996
4.23045
-4.29746
-1.29625
-5.92496
5.95298
-5.81342
5.87417
9.15185
-9.18779
-1.88518
3.75985
-1.8688
3.77023
-3.425
-2.35973
3.37938
0.922317
8.05296
5.03182
-8.23402
-1.71091
-8.04814
7.84989
-8.2348
8.03552
-0.433155
5.81881
-5.38565
4.43695
-1.56296
7.38176
5.69778
5.9162
5.86563
-5.58522
1.10146
-6.48711
-6.40051
-2.21802
2.35064
2.12863
-2.0221
6.15656
1.75132
6.03242
-5.7693
-2.25039
-5.87116
3.82049
2.01079
3.86985
4.07854
2.40443
4.11831
3.03041
-3.036
0.00559012
-3.05668
6.08708
0.723852
-5.4164
-4.49409
4.97941
3.04819
5.19036
-5.55939
-2.2233
-5.16561
-9.52726
-6.05676
-10.1086
10.0701
5.13455
9.75922
-11.9395
11.7852
4.81692
2.75729
4.86015
-4.95775
-2.56332
-4.86126
11.6335
-2.64102
-8.9925
-10.3006
-7.51346
10.2858
5.45052
10.9407
6.92279
11.0244
4.41683
7.2167
-9.86735
2.35389
-3.86847
-1.8399
-3.78069
3.67613
2.13819
3.8047
-4.21764
-2.52314
-4.19979
-4.29596
-2.68114
4.31641
2.41828
-4.41825
-3.81655
4.53398
2.38059
4.0331
-10.04
4.30599
-7.93429
-9.17622
-3.75861
-9.04797
3.54289
2.60755
-6.15044
-2.03142
8.54452
-4.31407
7.24827
-5.19787
-3.45539
-5.21121
-6.89082
-1.73597
-6.74111
-8.86836
8.37606
-9.16416
8.52295
12.493
-5.63472
-6.85827
-3.96847
-2.47372
3.92096
-0.491811
-3.71045
3.71604
0.0505122
3.83119
4.75375
4.26194
-3.88456
-1.92886
-3.82825
3.82427
2.04989
3.89114
6.8469
2.30495
6.8783
-6.62418
-2.56361
-6.72091
9.02857
-8.63013
2.83103
-2.73231
5.40227
2.63325
-5.18735
-2.8608
6.20833
-3.21993
-2.98841
-12.1993
10.5237
1.67569
-4.81758
-0.380636
-0.466748
-5.48657
-3.75009
5.36728
0.54892
11.0726
7.32248
-5.51119
5.76214
6.16784
6.22359
-0.176919
5.79922
-5.12922
5.2537
-2.61806
-2.63565
5.485
-5.61905
-1.23591
-5.53689
4.30098
0.413374
1.43357
-1.21059
-1.75835
-0.459671
-1.62713
1.22397
0.90466
1.28589
0.961852
1.38879
-2.95464
0.519379
2.43526
-1.99278
-1.50272
-3.8471
-1.1429
4.99
5.74545
2.10444
-5.64162
-0.229538
2.51006
-2.39661
-0.800383
-3.04672
2.24624
-3.04662
-3.66605
-2.09479
5.76084
-3.36965
-0.458593
3.31639
0.553458
-3.82728
-2.09768
3.78886
0.329455
-3.12871
6.19134
-3.06262
-5.05757
2.52748
3.55961
4.53827
-4.78952
2.44779
2.34173
-1.22991
4.24639
0.943971
4.41576
-6.94741
4.72411
5.80914
3.23916
-6.16829
1.00268
-5.94473
8.55041
-7.37703
-1.17337
4.16807
4.38234
7.05129
5.4417
-5.66617
12.7175
-1.20702
-6.17001
7.15175
-3.91259
4.85357
-8.76616
-10.2953
4.12526
-9.12027
10.8945
-1.77419
-3.61828
-8.32118
12.7385
-1.20271
-11.5358
8.55651
-4.28967
-4.40138
8.69106
-6.9307
6.9647
-1.99219
-4.97251
-10.0881
-5.68624
10.1851
1.60011
-9.93388
12.2878
-2.71718
4.12955
0.730602
4.161
3.3055
-5.48968
2.18418
3.6252
-5.61739
2.07935
-7.56902
-6.71672
12.0459
-5.32913
-10.4753
-9.49794
-0.977398
2.53231
9.75546
-9.4551
7.41084
2.04426
3.30014
0.590999
-3.37542
-0.40527
0.234332
4.5146
-4.74894
4.03903
4.19602
3.26478
1.24983
3.84566
2.10732
-3.87027
-0.329515
-4.16438
1.48324
-1.74611
-3.69474
5.17798
-4.06764
0.372899
-2.74381
-3.49718
6.24099
-4.58371
3.03518
3.15616
5.08507
-4.91329
1.41612
-2.39279
-2.5205
2.65152
-4.39763
1.99459
3.1834
4.37518
0.558631
5.87022
6.17563
-8.47777
0.543479
11.2075
-9.49654
2.46217
8.56219
-9.873
0.375067
-8.6729
0.996981
-5.31105
-5.15346
5.20056
-6.93653
-3.56561
6.21983
0.658471
-6.33113
-0.409984
-6.02825
-2.84011
-6.47314
-3.03946
-6.12469
-8.70563
-1.65015
-7.05548
6.7259
-6.67362
-3.43499
7.39838
1.12456
-7.40303
7.30229
-7.48128
7.15333
0.0954539
3.62059
4.35739
1.88367
-2.39068
4.27435
-5.12322
7.42817
-8.72934
3.60612
4.21238
-6.77599
-4.51696
5.01609
4.01248
5.31408
8.87065
-10.3314
1.46077
-10.6351
11.9684
-1.33327
-16.3891
5.75403
-7.5185
2.43319
0.397842
2.55207
0.541633
2.49858
-3.04021
-2.19068
-2.10093
-2.44246
-3.46497
5.90743
1.08532
-3.53255
2.44723
-3.56763
4.65295
-0.220355
-3.31219
5.26632
-2.76775
5.66417
-3.78798
1.87618
3.44058
5.75466
-2.31407
4.39542
-1.76218
1.93034
-4.24441
-1.53463
-2.95621
5.0944
-3.28478
3.65768
-0.34546
4.00314
-4.04685
0.82693
-0.782077
3.41394
3.64117
4.31643
-3.0666
2.91639
-4.67857
-1.32802
-4.11994
-0.936539
-0.253075
-3.69404
3.94711
5.96901
-6.22209
-5.22837
9.51671
-4.28834
7.68471
-5.37577
-2.30894
-4.24649
-4.38365
3.8719
1.92731
9.61202
0.20861
-5.58438
-4.92061
-3.97176
3.09503
2.15867
-1.71636
3.39205
2.18311
-0.749543
0.425774
0.860114
1.77808
-1.35231
0.328412
1.44967
-0.882174
1.69159
0.818478
-1.81095
0.183821
-1.33793
3.58417
1.09733
-2.00199
0.649679
0.97298
-3.59103
5.07474
-2.69589
-2.37885
6.04772
1.14005
-3.83594
4.39684
-3.98347
2.40022
-3.54312
-1.43572
-5.41918
-3.66786
-2.51641
4.96364
-3.39102
5.49546
1.29759
-5.26592
6.56352
-3.73037
1.63558
-3.04492
3.8634
-0.922576
-2.12235
2.9025
2.85834
-3.08623
0.0395074
-0.183731
2.40716
-2.59089
-0.639461
-2.63225
-4.57364
4.90309
-2.10514
4.55293
2.1692
-1.91729
6.47022
1.80864
-3.72593
-3.24893
-3.70752
-1.3842
3.15407
-0.57002
-4.29124
-5.54253
4.15951
0.25625
-7.06277
7.88035
-0.817587
-4.01458
-0.709531
4.8776
-6.08718
0.469792
-4.00783
3.87252
4.81649
5.07274
-11.3156
-0.220263
-6.18102
1.12113
-7.30215
5.50347
-3.53193
7.65718
-10.3101
6.87511
-9.18553
6.48381
-0.818346
6.24006
-4.05588
2.75244
-8.43868
-6.83858
5.55547
-2.79819
6.28608
-3.17569
9.46176
-5.89287
5.34197
4.1198
-1.03315
-4.17805
-5.34006
4.3069
0.00190951
4.16291
4.98035
-2.87302
4.65083
2.26994
-4.66274
-2.12769
-6.49615
1.83341
-3.33999
-1.92129
3.7547
3.16379
3.75478
1.2342
-3.34951
7.19906
-8.17646
-1.86993
-3.28353
5.32782
-1.02091
3.43862
-6.72215
-1.87243
4.78309
-0.779461
-4.00363
0.851627
-4.41723
1.6756
-6.09283
5.26093
-5.67091
2.22167
-9.74017
-5.18135
-5.14065
-2.2579
-5.22338
-7.55973
5.30183
-1.8057
5.49659
-8.49042
7.71096
-3.47797
8.7798
-5.42346
-1.04968
5.84055
1.31278
10.0926
0.226384
-4.74334
-1.92439
3.83534
-1.91094
1.17064
-3.46765
0.367682
2.49479
3.55293
-6.79577
0.0197781
-4.72357
-3.9139
7.92638
5.60281
11.5718
1.24041
9.10542
-1.17904
10.3458
4.13504
4.37075
-2.98155
4.44232
0.965559
4.57168
-0.927496
2.80368
1.62458
1.71528
0.68133
2.30353
1.33763
3.13046
0.0902549
-2.01067
4.61727
-8.58903
-0.967111
-8.01496
1.13808
5.70438
-4.5663
2.92299
-0.76432
1.01205
-0.136123
-1.18232
1.31845
-2.77177
-1.93187
-0.482193
-1.6993
2.34898
1.88487
-1.86679
-0.904981
0.353648
-4.02151
3.18947
-3.14996
-0.291622
6.27189
-2.81636
0.225471
-1.18078
-2.40677
-2.86645
2.68262
6.17627
0.293949
3.11365
5.19704
3.09936
0.226338
3.88068
-5.65488
-3.68834
-5.87514
-0.371671
4.50593
1.76791
7.98755
5.88771
4.8668
-1.85535
-10.0318
6.50654
-2.06422
5.17327
-1.16964
-4.92319
5.05156
2.3766
-5.71004
0.0391234
-4.88407
-6.94829
-0.511531
8.22249
-9.58105
8.53137
5.69126
1.36422
-4.4
-0.740653
4.23576
0.134996
10.4808
-1.1291
-6.70237
7.83146
-4.57528
3.60817
0.731545
2.66051
2.04999
1.28567
-5.41669
-9.98299
-2.0715
-1.51954
-4.45035
0.539656
-2.42452
6.21575
-2.60758
3.90681
5.22388
6.23593
-2.12708
-4.09501
6.41541
-2.5086
3.72733
)
;

boundaryField
{
    wall-4
    {
        type            calculated;
        value           uniform 0;
    }
    velocity-inlet-5
    {
        type            calculated;
        value           uniform -3.75095;
    }
    velocity-inlet-6
    {
        type            calculated;
        value           uniform -5.62643;
    }
    pressure-outlet-7
    {
        type            calculated;
        value           nonuniform List<scalar> 8(3.30797 7.75775 4.46169 9.66899 7.41885 5.16602 5.7856 8.94647);
    }
    wall-8
    {
        type            calculated;
        value           uniform 0;
    }
    frontAndBackPlanes
    {
        type            empty;
        value           nonuniform List<scalar> 0();
    }
}


// ************************************************************************* //
