/*--------------------------------*- C++ -*----------------------------------*\
| =========                 |                                                 |
| \\      /  F ield         | OpenFOAM: The Open Source CFD Toolbox           |
|  \\    /   O peration     | Version:  2206                                  |
|   \\  /    A nd           | Website:  www.openfoam.com                      |
|    \\/     M anipulation  |                                                 |
\*---------------------------------------------------------------------------*/
FoamFile
{
    version     2.0;
    format      ascii;
    arch        "LSB;label=32;scalar=64";
    class       volVectorField;
    location    "80";
    object      U;
}
// * * * * * * * * * * * * * * * * * * * * * * * * * * * * * * * * * * * * * //

dimensions      [0 1 -1 0 0 0 0];

internalField   nonuniform List<vector> 
918
(
(0.98516 -0.000508246 0)
(0.00501816 2.96624 0)
(0.00751704 0.885273 0)
(0.979705 0.00214511 0)
(-0.0120832 2.06294 3.77441e-20)
(-0.00704989 2.9488 -2.43868e-18)
(0.821782 1.16726 4.51683e-19)
(0.0978953 0.0674117 -1.45306e-20)
(0.999909 -0.000275307 0)
(0.0663375 0.73509 0)
(0.0172848 0.476461 0)
(0.731581 0.00618963 0)
(0.0110884 2.93041 0)
(0.00264081 2.79517 0)
(-0.0179288 3.147 7.82229e-19)
(-0.0211211 1.91758 1.15782e-20)
(0.286751 0.0586477 1.018e-18)
(0.189107 1.14433 3.17986e-19)
(0.962713 0.00501675 0)
(0.00674217 0.442645 0)
(-0.00926133 0.0293353 -6.72763e-19)
(1.00197 -0.00497427 0)
(1.00023 -0.00978322 0)
(0.975741 -0.00643864 0)
(0.598285 0.0301619 0)
(0.0134095 2.64303 0)
(-0.0148507 2.90999 8.9532e-19)
(0.0114815 0.929821 0)
(-0.019969 1.18354 0)
(0.0137941 0.913594 0)
(-0.0147483 2.58689 0)
(-0.000983245 2.11657 -3.01452e-20)
(-0.0110408 1.89821 0)
(-0.020608 2.98761 -8.75658e-23)
(-0.016683 3.00529 1.89522e-18)
(0.00209739 3.00017 0)
(0.871469 -0.00965718 0)
(0.401563 0.930965 1.80707e-19)
(0.808475 1.18079 -5.17717e-19)
(0.95939 1.02772 5.62982e-19)
(0.676111 1.27254 -1.05154e-19)
(0.676071 1.24623 6.02782e-19)
(0.124745 0.120704 1.41738e-20)
(0.134054 0.0574749 0)
(1.16603 0.565983 0)
(0.0919952 0.0890808 6.3895e-20)
(0.0619478 0.0452995 -6.63128e-20)
(0.919928 -0.0074581 0)
(1.00027 0.000162785 0)
(0.999909 0.000339518 0)
(1.00363 -0.00775722 0)
(1.00096 -0.00091832 0)
(1.00017 3.8205e-05 0)
(0.0728468 1.82645 -7.68107e-19)
(0.0324448 0.947426 0)
(0.0982929 0.81487 0)
(0.0143467 0.895725 0)
(0.04214 0.654182 0)
(0.0068146 2.01542 0)
(0.00100688 0.776045 0)
(0.0180354 0.49815 0)
(-0.00517431 0.76342 0)
(0.00871019 0.461502 0)
(0.842169 -0.0156614 0)
(0.842505 0.0268384 0)
(0.757987 0.00270732 0)
(0.8013 0.0288347 0)
(0.700591 0.0179812 0)
(0.0146807 3.00041 9.0355e-19)
(0.0114836 3.00806 0)
(0.00610702 3.00274 0)
(0.0135285 2.99736 1.02435e-23)
(0.00796507 2.95849 -1.3429e-18)
(0.0144965 2.98206 0)
(0.0108753 2.90358 0)
(0.0243743 2.93098 2.0446e-24)
(0.00470523 2.8249 0)
(0.0300097 2.91659 0)
(-0.00507695 2.74557 0)
(0.303858 3.53838 0)
(-0.131552 3.61871 0)
(0.137034 3.23685 -7.27931e-19)
(-0.0138168 2.97603 0)
(-0.0264027 1.98553 0)
(-0.00682266 2.16928 -1.14195e-20)
(-0.0151087 1.9258 6.27522e-21)
(0.338031 0.138388 -3.5351e-19)
(0.317877 0.0348191 -3.43534e-19)
(0.292619 0.141887 -1.05844e-18)
(0.250661 0.0651405 -6.87549e-19)
(0.229754 0.985502 0)
(0.272724 1.29453 -3.69688e-19)
(0.367025 1.22958 6.16802e-19)
(0.987427 0.00857441 0)
(0.941846 0.0058162 0)
(1.0003 0.000581675 0)
(1.00286 0.00931032 0)
(1.00301 0.00847322 -2.74472e-18)
(0.991906 0.00969529 2.07271e-18)
(-0.0139475 0.763774 0)
(0.00892041 0.447134 0)
(-0.0521299 1.0081 0)
(-0.0306796 0.813385 0)
(0.00274144 0.449389 0)
(-0.0820428 0.0856222 2.08868e-19)
(0.0394452 0.0521883 0)
(0.993556 -0.00836838 0)
(0.954474 -0.00653423 0)
(0.744081 0.029529 0)
(0.678665 0.0276756 0)
(0.660861 0.0249671 0)
(0.972719 -0.00710772 0)
(0.58762 0.0736957 0)
(0.456193 -0.00358259 1.54131e-18)
(-0.0375268 2.86121 6.56918e-19)
(0.0412282 2.90978 0)
(0.0534039 2.88633 0)
(-0.0048216 2.70115 0)
(-0.013305 2.98523 8.46615e-19)
(-0.0177839 2.89502 0)
(-0.0153702 2.98809 -2.6274e-18)
(-0.0133143 2.92518 8.99657e-19)
(-0.0340897 1.35092 0)
(-0.00604261 1.38138 0)
(-0.00704256 2.1344 5.58271e-22)
(-0.00606625 2.09637 0)
(-0.0232543 1.90534 0)
(0.938705 -0.00735663 0)
(0.857665 -0.00997138 0)
(0.862891 0.00518027 0)
(0.949672 -0.00778786 0)
(0.884139 -0.00819941 0)
(0.512725 1.12367 -2.28131e-19)
(0.561918 1.17462 0)
(0.366341 0.876027 3.36628e-20)
(0.309244 0.734787 0)
(0.921833 1.06367 -1.55571e-19)
(1.04128 0.873633 3.17906e-19)
(0.359981 1.35659 0)
(0.52822 1.32796 0)
(0.54991 1.26644 0)
(0.121498 0.185051 -3.02885e-19)
(0.160257 0.113896 0)
(0.172065 0.0945154 1.89129e-19)
(1.01201 0.927858 0)
(1.08656 0.781513 0)
(1.11188 0.72326 -2.54293e-19)
(1.14538 0.625418 0)
(1.19553 0.408598 5.77917e-20)
(0.957809 -0.00868204 0)
(0.962543 -0.0100198 0)
(0.901806 -0.00798911 0)
(0.984212 -0.00913931 0)
(0.974727 -0.0093213 0)
(0.937154 -0.00637507 0)
(1.00019 0.00234119 0)
(1.0009 0.00141729 0)
(0.999909 0.000856161 0)
(0.0355184 2.07261 4.25846e-19)
(0.118567 1.76952 0)
(0.0181261 2.18616 6.5357e-19)
(0.0459631 1.88064 -5.44018e-19)
(0.106846 1.14946 -2.604e-19)
(0.0497029 1.02824 0)
(0.142837 0.981279 0)
(0.00856989 0.848187 0)
(0.0212693 0.591429 0)
(-0.000935438 2.24167 -7.67934e-22)
(0.0159619 2.01937 0)
(-0.00177989 2.24408 -2.55154e-20)
(0.00823203 2.02487 3.78123e-20)
(0.00605066 0.816566 0)
(0.00436434 0.792871 0)
(0.0144896 0.540411 0)
(-0.00996604 0.757356 0)
(0.00553414 0.448029 0)
(0.938858 0.00987972 0)
(0.850955 -0.0145915 0)
(0.92792 0.000502974 0)
(0.842905 -0.0128663 0)
(0.810013 -0.000150119 0)
(0.899017 0.0213646 0)
(0.875101 0.0246301 0)
(0.78383 -0.000387177 0)
(0.00573406 3.06494 -8.40507e-21)
(0.0167483 3.05767 0)
(0.0147148 2.96901 0)
(0.00872521 2.87618 0)
(0.918798 3.94926 0)
(1.23169 3.28316 9.23908e-19)
(0.068837 3.06831 0)
(-0.0293752 2.90139 0)
(-0.0100937 1.40441 0)
(-0.0321457 1.69888 0)
(-0.0186782 1.53627 0)
(-0.0304488 2.54601 -8.94807e-21)
(-0.0145693 2.2389 0)
(-0.0203385 2.38594 0)
(-0.00107984 1.95244 6.5785e-22)
(-0.00343598 2.24011 -1.08275e-20)
(-0.00530924 2.20397 -6.55976e-21)
(-0.0089784 1.93731 0)
(0.389308 0.12221 5.40251e-19)
(0.36664 0.021487 -5.30141e-19)
(0.258445 1.58531 0)
(0.278154 0.758654 -3.15595e-19)
(0.176881 1.67263 -1.04632e-18)
(0.225722 1.22129 1.04859e-18)
(0.901948 0.00614917 0)
(0.967346 0.0112073 0)
(0.974521 0.0108265 0)
(0.923259 0.00634866 0)
(-0.0122582 0.755547 0)
(-0.0136727 0.75631 0)
(0.00644894 0.440244 0)
(0.0815014 0.0649203 5.87897e-19)
(0.0767862 0.0417951 -6.92948e-19)
(0.0378387 0.0367481 0)
(1.10177 0.087103 2.69317e-20)
(1.08378 0.0400142 0)
(1.01504 0.0404195 0)
(0.908562 -0.00506094 0)
(0.442736 0.103703 0)
(0.502332 0.0871432 -2.46349e-18)
(0.410237 0.0149807 9.21533e-19)
(0.00863009 2.98095 7.07237e-19)
(-0.0323347 2.86535 4.74113e-20)
(0.00358468 3.05028 -1.78068e-20)
(0.0202434 3.04332 6.3339e-19)
(-0.0150132 2.9966 2.95563e-20)
(-0.0129225 2.94947 -1.18969e-22)
(-0.0172449 3.01192 -5.47585e-19)
(0.0148575 3.02379 3.96326e-19)
(0.0073795 3.0368 -6.27076e-19)
(0.934236 -0.00114834 0)
(0.939633 -0.00315292 0)
(0.846239 -0.00945861 0)
(0.956403 0.0121473 0)
(0.942372 0.0136659 0)
(0.881456 0.00544585 0)
(0.916171 0.0177505 0)
(0.925372 0.0155674 0)
(0.837533 0.00203274 0)
(0.71502 1.40043 3.84335e-20)
(0.748324 1.50898 0)
(0.180106 0.312924 7.0558e-20)
(0.229869 0.669374 5.67323e-19)
(0.262231 0.719241 -3.31604e-19)
(0.262047 0.517712 6.60142e-19)
(0.347094 0.813061 1.59381e-18)
(0.141221 0.231 3.76182e-19)
(0.247983 0.144547 7.27245e-19)
(0.206449 0.137321 1.88385e-19)
(0.214711 0.075001 3.56779e-19)
(1.18445 0.466686 6.80351e-20)
(1.19923 0.258506 6.30798e-20)
(0.010317 2.23483 2.50942e-19)
(0.0402608 1.94883 0)
(0.971739 0.029643 0)
(0.944031 0.0140925 0)
(0.870051 -0.0177445 0)
(0.0112134 3.07409 0)
(0.0195813 2.94413 1.15717e-18)
(0.0163975 2.95623 0)
(0.00647502 2.85058 -1.1477e-18)
(0.00639473 3.09136 2.8052e-19)
(0.00716982 3.08267 0)
(0.781047 1.81005 -1.57893e-19)
(1.23956 2.48469 4.00396e-19)
(0.762983 1.94923 -1.22408e-18)
(0.0194212 2.97988 -6.08233e-19)
(0.034973 2.99827 0)
(-0.0347902 2.87567 0)
(-0.00388617 2.22369 -1.31018e-20)
(-0.00300874 2.24461 1.84529e-20)
(0.00160317 1.98719 -7.19341e-21)
(0.278308 1.39493 1.02409e-18)
(0.239915 0.554235 -7.02131e-19)
(0.0637099 1.99754 7.60048e-19)
(0.13505 1.88381 -9.07867e-19)
(0.180083 1.51255 9.52508e-20)
(0.00357851 3.11794 -1.68884e-18)
(0.0162799 3.11809 1.80776e-18)
(-0.0092744 2.9807 7.77811e-19)
(-0.00353193 2.97712 -7.34662e-19)
(-0.0212706 2.8811 -7.92179e-19)
(0.00860527 3.09878 -2.08323e-18)
(0.00184281 3.10686 2.03487e-18)
(0.283252 0.696193 0)
(0.249234 0.684752 -1.18123e-18)
(0.0958766 0.22492 5.2441e-19)
(0.358407 0.940441 1.11375e-18)
(0.19628 0.27724 -1.71722e-18)
(1.18962 0.176231 6.18732e-20)
(1.19954 0.313423 0)
(1.17802 0.123593 -4.74844e-21)
(0.00156365 2.25333 -1.42288e-21)
(0.00496931 2.24477 0)
(0.0245775 1.98474 0)
(0.339921 1.30395 -3.67595e-19)
(0.375314 1.15221 -7.99894e-19)
(0.211012 0.379608 1.42668e-18)
(1.00588 -0.010823 0)
(1.00767 -0.0076307 5.06304e-19)
(-0.0287863 1.33187 0)
(-0.0413961 1.33209 0)
(1.00221 0.00351682 1.81296e-21)
(1.00367 0.00947509 1.03385e-18)
(-0.0188973 2.53077 1.13412e-20)
(-0.0240367 2.57342 0)
(0.0339309 3.17632 4.0003e-19)
(0.388841 3.48164 0)
(1.17873 0.667628 -5.53443e-20)
(1.01284 0.0131443 -2.12613e-21)
(1.02136 -0.0102671 0)
(1.0017 0.000134524 7.99865e-23)
(0.112996 1.37155 0)
(0.143306 2.56601 0)
(0.0350319 1.3166 0)
(7.56877e-05 2.61755 2.46247e-20)
(-0.021407 2.57434 -2.04687e-22)
(0.999512 0.0312272 2.57981e-21)
(1.06332 0.00490144 0)
(1.09802 0.0255338 0)
(-0.0305308 1.74248 0)
(-0.0185111 2.57458 0)
(-0.0088212 1.32058 0)
(0.311442 1.48415 -1.6883e-19)
(1.01131 -0.00960779 0)
(1.0094 -0.0149142 0)
(1.00237 0.000759475 6.47082e-19)
(1.00547 -0.00479444 -7.60516e-19)
(1.00118 -0.000963893 0)
(-0.0178061 1.47182 0)
(-0.00754501 1.38448 0)
(-0.00992813 1.42947 0)
(-0.0128422 1.3074 0)
(-0.0243401 1.29416 0)
(-0.0157859 1.27818 0)
(1.03511 -0.00599894 0)
(1.01964 0.0159012 -9.38267e-22)
(0.824373 1.27661 2.63136e-19)
(1.00223 0.00032698 -6.44529e-19)
(1.00406 0.0052664 7.5467e-19)
(1.00118 0.00207913 0)
(1.0127 0.0103899 6.41554e-19)
(1.00797 0.00831944 -7.77354e-19)
(1.00856 0.01469 0)
(-0.0235954 2.60198 0)
(-0.0256938 2.58114 -2.10156e-20)
(-0.0229387 2.59547 1.49151e-20)
(1.23965 0.269902 5.76576e-19)
(1.16385 0.0878082 0)
(0.039044 3.07829 -8.97167e-19)
(0.0650294 2.85702 -6.5236e-20)
(0.137838 3.19166 1.37539e-18)
(0.133168 3.21917 -1.9178e-19)
(0.132578 3.22954 0)
(0.0189699 3.13705 2.31404e-19)
(0.0737175 3.15996 8.84581e-19)
(0.0668189 3.18466 -4.36332e-19)
(0.0212259 3.13023 0)
(0.555431 0.282628 0)
(0.492863 0.302903 0)
(1.15096 0.703887 1.23984e-19)
(1.14402 0.825371 -1.05542e-19)
(1.20654 0.59053 0)
(1.23367 0.524105 0)
(1.01599 0.013397 -1.19582e-18)
(1.01497 0.0142433 1.50131e-18)
(1.02542 -0.00978141 0)
(1.02349 -0.0118305 0)
(1.00642 0.0026602 0)
(1.01042 0.00376302 0)
(1.00458 0.00187418 0)
(1.00978 0.00626934 0)
(1.0078 0.00597084 0)
(1.00451 0.00473382 0)
(0.10139 1.37004 0)
(0.0985711 1.33248 0)
(0.131997 1.40657 0)
(0.150208 1.41103 0)
(0.14537 2.59117 0)
(0.184892 2.66176 -4.21647e-19)
(0.101657 2.64621 0)
(0.0853409 2.64923 1.96505e-19)
(0.0389729 2.6723 -1.44471e-19)
(0.0219789 1.33181 0)
(0.0312414 1.24995 0)
(0.0246622 1.34164 0)
(0.0471253 1.27003 0)
(0.00398499 1.98201 7.22824e-21)
(-0.0202632 2.60218 -2.40537e-20)
(-0.00801024 2.65887 8.37757e-21)
(-0.0179247 2.67822 0)
(-0.0232018 2.60768 5.3197e-21)
(-0.0232979 2.60262 1.93179e-20)
(0.0127257 1.98 -1.96787e-21)
(-0.0077551 2.3891 3.22687e-20)
(-0.0132095 2.41221 -9.50122e-21)
(1.01237 0.0397301 1.21026e-18)
(1.00509 0.0210633 -1.50678e-18)
(1.00429 0.0471306 -1.23324e-18)
(0.978495 0.0383362 1.55221e-18)
(1.06453 0.00870703 0)
(1.04961 -0.0081163 0)
(1.09507 0.0356357 0)
(1.07472 0.0132815 0)
(1.07251 0.000926178 0)
(1.14105 0.0846147 0)
(1.11258 0.0453935 0)
(1.11673 0.0330745 0)
(-0.0258741 2.4245 1.50935e-21)
(-0.0153846 2.01195 0)
(-0.0176276 2.21198 0)
(-0.0204202 2.59521 -1.30211e-20)
(-0.0175896 2.60546 2.78498e-22)
(0.00152227 1.58419 -4.043e-20)
(-0.0088896 1.51197 4.12168e-20)
(-0.0187116 1.40159 0)
(-0.0221136 1.4081 0)
(-0.0290723 1.40253 0)
(-0.00586204 1.32199 0)
(0.00826177 1.2417 0)
(0.38753 1.5016 2.75092e-19)
(0.43082 1.5022 1.4574e-19)
(0.597079 2.44174 -2.40319e-19)
(0.397506 2.53912 7.06595e-19)
(0.348643 2.04893 7.15335e-20)
(1.0211 -0.0080857 0)
(1.01552 -0.0097302 0)
(1.01493 -0.015498 0)
(1.0074 -0.00104834 0)
(1.00493 -0.000901173 0)
(1.00779 -0.00466842 0)
(1.00928 -0.00358061 0)
(1.01424 -0.00434173 0)
(1.02035 0.0165614 1.17175e-18)
(1.01749 0.0156057 -1.49933e-18)
(1.02066 0.018841 -1.18141e-18)
(1.01804 0.0172457 1.48015e-18)
(0.787572 1.32702 0)
(0.722869 1.37818 2.49046e-19)
(0.900655 1.22719 1.00568e-19)
(0.946544 1.17299 -1.33839e-19)
(1.15317 2.59615 2.81984e-19)
(0.764266 0.123139 6.00076e-19)
(1.1645 0.110705 0)
(1.2142 0.196645 -4.6419e-19)
(1.20182 0.156792 -1.97966e-20)
(1.00575 0.158951 0)
(0.126222 2.9585 5.23474e-19)
(0.102157 2.86415 -1.13836e-18)
(0.00725807 2.37778 7.5777e-19)
(0.106675 -0.179471 -3.101e-19)
(0.333932 3.41218 -2.17768e-19)
(0.189901 3.30743 0)
(0.233816 3.34734 2.83613e-19)
(0.237019 3.0307 -1.75653e-18)
(0.329975 3.18849 0)
(0.00529689 3.12117 4.52541e-20)
(0.0156947 3.1297 -5.33646e-19)
(0.0136876 3.1258 7.85408e-19)
(0.0339311 3.13997 0)
(0.0323666 3.15002 0)
(1.20786 2.59311 0)
(0.550346 0.797276 -5.26314e-19)
(1.07038 0.997927 -1.19976e-20)
(1.00587 1.08203 0)
(0.85957 0.976494 -1.0848e-19)
(1.09727 0.899049 2.78192e-20)
(0.286279 0.308174 -8.18722e-19)
(0.641877 0.326214 -1.64373e-20)
(0.523332 0.220153 4.04542e-19)
(0.514907 0.337859 2.89495e-20)
(0.40266 0.266548 -1.16044e-18)
(0.594769 0.326735 0)
(0.710979 0.432026 6.60209e-19)
(0.707676 0.43254 0)
(0.556346 0.342746 0)
(0.462586 0.241158 0)
(0.832835 0.630141 4.0552e-19)
(1.24107 0.292455 -4.84844e-19)
(1.24173 0.43212 0)
(1.24977 0.372142 0)
(0.671576 0.195426 6.21027e-19)
(0.877334 0.561269 -3.69717e-19)
(0.77719 0.539262 6.60395e-19)
(0.963522 0.452271 -7.30868e-19)
(1.0191 0.0150469 8.04102e-19)
(1.01746 0.0144044 -8.07977e-19)
(1.01585 0.0152978 0)
(1.03658 -0.00553867 0)
(1.02997 -0.00832976 -7.57284e-19)
(1.02802 -0.0119273 7.49757e-19)
(1.02491 0.0107479 0)
(1.02337 0.0145919 0)
(1.01141 0.00419578 0)
(1.01417 0.00920236 0)
(1.01516 0.00423383 0)
(1.01427 0.00293491 0)
(0.0723352 1.35349 0)
(0.0795971 1.29873 0)
(0.148529 1.38817 8.90966e-21)
(0.282111 1.48248 8.97488e-20)
(0.177257 1.45321 1.88748e-19)
(0.209749 1.45846 -3.07777e-19)
(0.177359 1.4133 0)
(0.136292 1.59965 -7.01108e-20)
(0.120028 1.57929 0)
(0.344456 1.99784 -1.04019e-19)
(0.341097 2.33505 6.12411e-19)
(0.196265 1.46618 6.11207e-20)
(0.269499 1.39949 2.36232e-20)
(0.20261 1.39248 -1.90746e-20)
(0.279215 1.34239 -1.03559e-19)
(0.24275 1.5785 0)
(0.269501 1.61521 1.1258e-19)
(0.0309874 2.25553 -2.81259e-20)
(0.0439651 2.66145 0)
(0.0667343 2.39195 1.34487e-19)
(0.0634483 2.41271 0)
(0.0698625 2.66286 -2.17776e-19)
(0.0494702 2.69168 0)
(0.0290144 1.44942 3.8675e-20)
(0.0363527 1.49654 0)
(0.0341924 1.41423 0)
(0.0289537 1.42114 -4.36438e-20)
(0.000860255 2.64512 -1.6841e-20)
(0.0299751 2.69076 1.61704e-19)
(0.0106502 2.71593 1.13473e-21)
(0.00493869 1.84021 -8.98356e-21)
(-0.00159595 1.69443 -5.49504e-21)
(0.0178394 1.30988 0)
(0.0266242 1.22547 0)
(0.0459623 1.59655 -3.12639e-20)
(0.035359 1.47623 -3.73226e-20)
(0.0389264 1.5392 4.66406e-20)
(0.0409493 1.62001 0)
(-0.029944 2.26555 1.04324e-19)
(-0.0309948 2.54188 -4.33882e-20)
(-0.0170756 2.44014 5.01852e-21)
(-0.00269598 1.85524 1.08847e-20)
(-0.0260816 2.49284 4.41694e-21)
(-0.0206154 2.43747 -7.58795e-21)
(1.01885 0.0222251 -8.03193e-19)
(1.01573 0.028473 8.06171e-19)
(1.01256 0.0180895 0)
(1.0094 0.0714343 1.12968e-18)
(0.991776 0.0619844 -1.2613e-18)
(0.951014 0.0567276 1.41034e-18)
(1.0134 0.111984 -1.50362e-19)
(1.04303 -0.00550559 0)
(1.05149 -0.00106995 7.22001e-19)
(1.03934 -0.00967258 -7.23479e-19)
(1.07235 0.043317 -4.29352e-20)
(1.06523 0.0244213 3.70347e-19)
(1.06302 0.057529 0)
(1.05429 0.0509844 -1.33225e-19)
(1.03202 0.0422629 0)
(1.02657 0.0387462 0)
(1.02799 0.0139409 0)
(1.02399 0.0166223 0)
(1.04023 0.0333912 2.74385e-19)
(1.0388 0.0270842 -6.06652e-19)
(1.0515 0.0349159 -2.90749e-19)
(1.04831 0.0351106 -3.20307e-19)
(1.07177 0.0659126 6.25032e-19)
(1.09738 0.0537541 0)
(1.1069 0.0981971 0)
(-0.0257421 2.27021 5.77908e-20)
(-0.0252608 2.01801 1.33167e-21)
(-0.0213819 2.02537 0)
(-0.0268336 2.43859 -5.75222e-20)
(-0.0221436 2.39494 -2.77371e-21)
(-0.03303 2.4654 6.07735e-21)
(-0.0206642 2.61496 -1.71122e-20)
(-0.0233943 2.55621 4.28145e-22)
(-0.0221301 2.50831 -4.91573e-21)
(-0.0157696 2.60852 1.30794e-20)
(-0.0208086 2.6107 -1.43573e-20)
(-0.00739312 1.51211 -9.57272e-22)
(0.00198437 1.63149 -3.97076e-20)
(0.372583 1.45056 -1.16257e-19)
(0.372565 1.38358 3.73443e-20)
(0.663497 1.42806 -2.40891e-19)
(0.529841 1.49494 -1.43131e-19)
(0.58795 1.46089 0)
(0.592812 2.41888 2.06819e-19)
(0.661408 2.41487 3.37415e-19)
(0.410812 2.50813 8.816e-20)
(0.40207 2.53214 -6.06809e-19)
(0.509674 2.47274 6.13493e-19)
(0.552874 2.45554 0)
(0.48739 2.51345 -5.58508e-19)
(0.248076 2.58546 1.13946e-18)
(0.354425 2.55747 -7.70272e-20)
(0.283568 2.64721 -1.58217e-18)
(0.948124 2.37181 7.28756e-19)
(0.837963 2.37742 0)
(1.01108 0.0005508 2.62505e-20)
(1.01537 -0.00534054 -2.12922e-20)
(1.01769 -0.0034396 -3.88878e-19)
(1.01506 -0.000797756 3.90993e-19)
(1.01248 0.00130538 0)
(0.650914 1.29218 0)
(0.675031 1.18606 0)
(0.789462 1.10528 0)
(0.668258 1.14935 0)
(1.18333 2.6096 6.00263e-20)
(1.0713 2.35706 0)
(0.83256 2.15831 3.87332e-21)
(0.822787 2.42564 0)
(0.921071 2.51986 -4.23305e-19)
(0.956256 2.47597 2.81546e-19)
(0.795908 0.184041 0)
(0.736331 0.156846 1.62881e-19)
(0.905562 0.153105 9.48542e-19)
(0.821399 0.156254 -3.54819e-19)
(0.775675 0.0905375 -1.09683e-18)
(1.08321 0.243874 -8.90546e-19)
(1.00012 0.308071 -1.80468e-20)
(0.926951 0.31208 8.5832e-19)
(1.00693 0.237614 7.21292e-19)
(0.947288 0.201587 -1.25455e-18)
(0.908276 0.205937 1.56967e-19)
(0.946664 0.273517 -3.3275e-19)
(0.924416 0.232356 0)
(0.995828 0.198326 6.18533e-19)
(1.04725 0.196706 0)
(1.04525 0.225419 0)
(1.10813 0.122662 2.89567e-19)
(1.07224 0.18291 -1.51978e-20)
(1.07653 0.243742 -1.57559e-19)
(1.10185 0.209391 0)
(1.02122 0.0467748 6.18733e-19)
(1.03975 0.0600306 7.72158e-19)
(1.03362 0.0453555 -6.14865e-19)
(1.04236 0.0681163 -5.18122e-19)
(1.01775 0.0762931 -7.95995e-19)
(0.984207 0.16128 0)
(0.988984 0.10656 0)
(0.965844 0.0769876 -5.01763e-19)
(0.903988 0.0983184 1.99797e-19)
(1.04031 0.108885 7.15863e-19)
(1.06944 0.126035 -8.35358e-19)
(1.07664 0.158737 7.45964e-19)
(1.03181 0.153529 0)
(1.07492 0.113375 0)
(1.05379 0.0940119 -3.42406e-19)
(1.04409 0.0997798 -5.83991e-19)
(0.578573 1.05007 1.41406e-19)
(0.601965 1.37217 -4.30338e-20)
(1.15329 2.72509 -2.30253e-19)
(1.21864 3.06768 2.82689e-21)
(1.24476 2.70824 -1.2676e-19)
(1.27278 2.69117 -2.97083e-20)
(1.19977 2.33133 -1.13058e-20)
(1.20641 2.9715 -9.64323e-20)
(1.22678 2.93713 2.38796e-19)
(1.20856 3.22019 -1.41268e-19)
(1.36771 2.95064 1.95151e-19)
(1.3558 2.86856 0)
(0.570511 0.80674 -5.06243e-20)
(0.100531 1.21481 5.66984e-19)
(0.565732 0.325795 5.37597e-19)
(0.402996 0.0705213 5.78102e-19)
(0.455652 0.309434 6.58698e-19)
(0.546388 0.425284 -1.07337e-18)
(0.549591 0.419621 8.79127e-19)
(0.453867 0.28816 -3.33117e-19)
(0.311378 0.217009 7.4603e-19)
(0.699888 0.272836 -3.59076e-19)
(0.655618 0.294413 0)
(0.584623 0.208121 6.08368e-21)
(0.745411 0.514197 3.57799e-19)
(0.728406 0.485585 -1.30057e-18)
(0.624974 0.447508 9.3009e-21)
(0.61732 0.438136 0)
(0.698847 0.718072 3.94787e-19)
(0.861631 0.782865 3.90719e-19)
(0.785576 0.865205 -4.57313e-19)
(0.906878 0.820237 -1.52204e-19)
(0.937716 0.865355 -3.65315e-20)
(0.944703 0.865016 3.74111e-20)
(0.872211 0.665505 -6.7179e-19)
(0.952186 0.718058 1.41316e-19)
(1.01212 0.732604 0)
(1.00281 0.708888 -1.90846e-19)
(1.02989 0.348972 2.10855e-19)
(1.15147 0.309295 2.8582e-19)
(1.07136 0.281468 3.63938e-19)
(1.0207 0.381909 -4.29121e-19)
(1.06971 0.444236 0)
(1.12611 0.424041 0)
(0.92088 0.385251 1.15948e-21)
(0.836737 0.320426 0)
(0.886666 0.318918 4.05819e-19)
(0.910027 0.320378 -8.43214e-21)
(0.958696 0.456024 2.03566e-18)
(0.920392 0.511462 5.22443e-19)
(0.924493 0.478208 -5.57802e-19)
(0.838406 0.466862 5.99137e-19)
(0.823221 0.462182 3.59435e-19)
(0.792932 0.445278 -3.52834e-19)
(1.02745 -0.000143693 6.47806e-19)
(1.02005 0.000145657 0)
(1.01857 0.0010719 4.2242e-19)
(1.02178 -0.00145887 -9.56887e-19)
(1.0224 0.0046159 4.64862e-19)
(1.02032 0.0116861 -9.73465e-19)
(1.02123 0.0110708 0)
(1.0204 0.0113324 -2.02903e-19)
(1.01592 0.00793925 5.09036e-19)
(1.01656 0.0107426 -2.54033e-19)
(1.01727 0.0100941 1.87012e-19)
(0.035887 1.32958 0)
(0.0429821 1.38514 0)
(0.0525182 1.32972 0)
(0.0604565 1.27622 0)
(0.0757738 1.40255 -5.04908e-20)
(0.0860787 1.36834 2.21636e-20)
(0.114455 1.54852 -1.42328e-20)
(0.107878 1.3907 -5.28315e-21)
(0.0408784 1.48129 2.25457e-20)
(0.0446068 1.47496 -1.73564e-20)
(0.0687476 1.38985 -1.1002e-20)
(0.0612017 1.39063 4.74941e-20)
(0.0557784 1.36762 7.09601e-21)
(0.0461045 1.39178 4.23067e-21)
(0.107557 2.3593 -1.4855e-19)
(0.0962566 2.40827 0)
(0.169393 2.03313 1.08371e-19)
(0.114664 1.70281 3.95715e-20)
(0.234648 2.03108 -8.96108e-20)
(0.199262 2.42157 0)
(0.26196 2.37148 -6.05471e-19)
(0.30209 2.36917 4.27676e-19)
(0.228539 1.99055 -2.49652e-19)
(0.154931 2.14931 1.69429e-19)
(0.141523 2.2558 0)
(0.0186516 1.87758 1.05555e-20)
(0.000895765 2.38412 -2.68951e-20)
(0.00630222 2.142 0)
(0.0117463 2.44824 -1.37082e-20)
(0.0293756 2.29073 6.53536e-21)
(0.0177946 1.42925 -8.25791e-21)
(0.0142806 1.41095 1.38271e-19)
(0.0133351 1.41904 -4.54192e-20)
(0.0228126 1.42481 -3.86883e-20)
(0.0269558 1.45332 0)
(0.00893499 1.40245 0)
(0.00133301 1.30757 -5.95218e-20)
(0.00385666 1.39608 1.71299e-20)
(0.00984885 1.39438 0)
(0.0103443 1.29938 -4.5162e-20)
(0.0198389 1.21421 9.11085e-20)
(1.04084 0.0121526 0)
(1.0471 0.00843268 -6.77589e-20)
(1.03892 0.0227266 -4.88769e-19)
(1.04861 0.0213729 0)
(1.05246 0.0211816 0)
(1.03654 0.0124198 -6.80751e-21)
(1.03122 0.0122789 7.85715e-19)
(1.03175 0.0173207 9.52533e-19)
(1.02566 0.0212638 0)
(1.02262 0.0217937 0)
(1.03537 0.0262838 4.87626e-19)
(1.02607 0.02805 0)
(1.02402 0.0278347 0)
(-0.0183363 2.0227 0)
(-0.00116541 1.66143 -4.4431e-21)
(-0.00532844 1.76552 -3.15955e-20)
(-0.00362719 1.40261 0)
(-0.00753639 1.56652 -2.28866e-20)
(-0.0112323 1.47899 1.3938e-20)
(-0.00902815 1.41862 0)
(0.387959 1.637 0)
(0.375426 1.30938 -7.37185e-20)
(0.300341 1.33977 0)
(0.427018 1.30807 8.95469e-21)
(0.478184 1.47268 0)
(0.458412 1.41695 2.43718e-20)
(1.03611 2.67176 -1.54022e-20)
(0.968375 2.40024 -9.15834e-19)
(0.921774 2.18937 1.02568e-18)
(0.852057 2.36926 2.42324e-19)
(0.847393 2.48081 0)
(0.917086 2.47687 0)
(0.931477 2.36533 0)
(0.910429 2.35498 -9.46312e-19)
(0.685915 2.44398 -3.95148e-19)
(0.799264 2.43337 -9.79189e-20)
(0.809527 2.40748 7.43575e-20)
(0.695202 2.38781 0)
(0.800527 2.38313 0)
(0.758558 2.39673 -3.68937e-19)
(0.766824 2.47055 0)
(0.636465 1.0943 0)
(0.479828 0.893376 -5.19303e-19)
(0.572544 0.94078 -3.2822e-20)
(0.518615 1.02854 0)
(0.519134 0.969645 7.76938e-19)
(0.805905 0.887521 -1.29087e-19)
(0.813566 1.02304 0)
(0.789089 0.989858 1.83797e-19)
(0.673704 1.03442 0)
(0.674698 0.935855 0)
(1.16259 2.74851 -2.31143e-19)
(1.14002 2.81188 -9.87166e-20)
(0.927699 2.32452 1.03325e-19)
(0.895602 2.30431 -8.40331e-20)
(1.12835 2.72154 0)
(1.0823 2.6909 1.01086e-19)
(1.08794 2.47488 -3.14119e-19)
(0.982551 2.22856 -3.02168e-20)
(0.490725 1.32439 0)
(0.507067 1.05659 -1.24614e-19)
(0.579469 1.16772 0)
(0.849004 0.25146 0)
(0.756252 0.200468 0)
(0.662676 0.155128 0)
(0.840472 0.252515 -6.32757e-19)
(0.72552 0.245911 3.73896e-19)
(0.921934 0.091468 -4.11768e-19)
(0.924478 0.133322 0)
(0.912862 0.142414 1.77925e-19)
(0.848778 0.118683 7.1138e-19)
(0.812813 0.0794702 -4.45801e-19)
(1.15328 3.34491 -7.14158e-19)
(1.2027 3.26454 0)
(1.1507 3.37417 -1.48452e-18)
(0.639167 3.53605 1.25857e-18)
(0.859667 3.10546 6.89762e-20)
(0.524542 0.786649 6.07936e-19)
(0.421929 0.784297 0)
(0.299507 0.351236 -1.47595e-19)
(0.482119 0.646647 8.54057e-19)
(0.573067 0.333518 -1.90554e-19)
(0.519273 0.460024 2.27919e-19)
(0.676681 0.514991 4.83177e-19)
(0.72191 0.556892 0)
(0.671235 0.569694 0)
(0.639178 0.525381 0)
(1.01271 0.619488 8.66059e-20)
(0.926165 0.560946 -5.08797e-19)
(0.952129 0.592082 3.82533e-19)
(0.981049 0.532225 -3.94494e-19)
(1.09001 0.498983 0)
(1.09861 0.590622 -9.55573e-20)
(0.857484 0.41865 -8.27628e-19)
(0.855012 0.406171 -1.02662e-18)
(0.787236 0.40123 6.28109e-19)
(0.796201 0.38982 -6.38733e-19)
(0.843403 0.345187 -5.18829e-19)
(0.789897 0.341502 6.34219e-19)
(1.02676 0.00620468 -4.9442e-19)
(1.02646 0.00642944 1.00601e-18)
(1.02955 0.000324298 6.27732e-19)
(1.03375 0.00122714 -7.56082e-19)
(1.03393 0.00936499 0)
(1.0302 0.0100518 -1.23022e-18)
(0.0642228 1.63853 1.84427e-20)
(0.0526866 1.59072 0)
(0.0913705 1.68789 1.23589e-19)
(0.0985332 1.66893 -1.09407e-19)
(0.0924676 1.54965 2.5456e-20)
(0.0916197 1.55147 0)
(0.0121919 1.69484 0)
(-0.00402608 1.51052 1.02827e-20)
(-0.00233519 1.4567 -9.24732e-21)
(-0.00874829 1.56347 5.30068e-21)
(0.00198791 1.88653 1.49652e-20)
(-0.010227 1.93996 -3.57348e-21)
(0.496652 1.35319 -2.78435e-19)
(0.490268 1.35284 3.06085e-19)
(0.454745 1.30357 -3.24383e-20)
(0.436723 1.28134 7.81368e-21)
(0.642959 1.31063 0)
(0.557338 1.40124 1.05378e-19)
(0.573618 1.40814 -1.0259e-19)
(0.468969 1.29582 3.16681e-20)
(0.524458 1.24286 0)
(0.575847 1.20506 0)
(0.652907 2.40372 5.8046e-19)
(0.668649 2.44575 1.25839e-18)
(0.713011 2.45654 -8.67169e-19)
(0.609058 2.43042 -2.01693e-19)
(0.559468 2.52013 2.83701e-19)
(0.508833 2.49522 -7.56572e-19)
(0.977893 2.37194 -5.74098e-19)
(1.01158 2.38391 0)
(0.92551 2.16746 -6.58416e-19)
(1.05346 2.66993 0)
(1.05579 2.65652 0)
(0.594202 2.25161 -1.34775e-19)
(1.03456 3.15076 1.22304e-19)
(0.905733 3.02137 -2.43851e-20)
(0.258315 0.827395 0)
(0.282012 0.667126 -3.17963e-19)
(0.454933 0.62874 -3.20978e-19)
(0.374289 1.99509 0)
(0.459619 2.77687 -4.80168e-20)
(0.412361 2.5392 0)
(0.724398 0.668784 -8.33222e-19)
(0.808498 0.690381 1.11087e-18)
(0.82791 0.631056 -1.09732e-18)
(0.700891 0.633289 -1.06434e-19)
(0.755379 0.593066 -4.35292e-19)
(0.999018 2.74853 -9.3023e-20)
(1.04101 2.81138 -1.69593e-19)
(0.628612 2.11178 7.1454e-19)
(0.58028 1.6812 -5.08548e-19)
(0.69162 1.88328 -4.12117e-19)
(0.985423 2.43276 -1.1295e-19)
(0.99297 2.42574 3.0008e-19)
(0.645537 1.81478 2.86455e-20)
(0.437774 1.30289 1.45988e-19)
)
;

boundaryField
{
    wall-4
    {
        type            noSlip;
    }
    velocity-inlet-5
    {
        type            fixedValue;
        value           uniform (1 0 0);
    }
    velocity-inlet-6
    {
        type            fixedValue;
        value           uniform (0 3 0);
    }
    pressure-outlet-7
    {
        type            zeroGradient;
    }
    wall-8
    {
        type            noSlip;
    }
    frontAndBackPlanes
    {
        type            empty;
    }
}


// ************************************************************************* //
